<VTKFile type="UnstructuredGrid" version="0.1" byte_order="LittleEndian">
<UnstructuredGrid>
<Piece NumberOfPoints="4363" NumberOfCells="6780">
<Points>
<DataArray type="Float32" NumberOfComponents="3" format="ascii">
0.666667 0 0 0.666667 0 1.11111 1.33333 0 1.11111 1.33333 0 0 0.652098 0.138608 0 0.652098 0.138608 1.11111 1.3042 0.277216 1.11111 1.3042 0.277216 0 0.60903 0.271158 0 0.60903 0.271158 1.11111 1.21806 0.542316 1.11111 1.21806 0.542316 0 0.539345 0.391857 0 0.539345 0.391857 1.11111 1.07869 0.783714 1.11111 1.07869 0.783714 0 0.446087 0.49543 0 0.446087 0.49543 1.11111 0.892174 0.99086 1.11111 0.892174 0.99086 0 0.333333 0.57735 0 0.333333 0.57735 1.11111 0.666667 1.1547 1.11111 0.666667 1.1547 0 0.206011 0.634038 0 0.206011 0.634038 1.11111 0.412023 1.26808 1.11111 0.412023 1.26808 0 0.0696856 0.663015 0 0.0696856 0.663015 1.11111 0.139371 1.32603 1.11111 0.139371 1.32603 0 -0.0696856 0.663015 0 -0.0696856 0.663015 1.11111 -0.139371 1.32603 1.11111 -0.139371 1.32603 0 -0.206011 0.634038 0 -0.206011 0.634038 1.11111 -0.412023 1.26808 1.11111 -0.412023 1.26808 0 -0.333333 0.57735 0 -0.333333 0.57735 1.11111 -0.666667 1.1547 1.11111 -0.666667 1.1547 0 2 0 1.11111 2 0 0 1.9563 0.415823 1.11111 1.9563 0.415823 0 1.82709 0.813473 1.11111 1.82709 0.813473 0 1.61803 1.17557 1.11111 1.61803 1.17557 0 1.33826 1.48629 1.11111 1.33826 1.48629 0 1 1.73205 1.11111 1 1.73205 0 0.618034 1.90211 1.11111 0.618034 1.90211 0 0.209057 1.98904 1.11111 0.209057 1.98904 0 -0.209057 1.98904 1.11111 -0.209057 1.98904 0 -0.618034 1.90211 1.11111 -0.618034 1.90211 0 -1 1.73205 1.11111 -1 1.73205 0 0.666667 0 2.22222 1.33333 0 2.22222 0.652098 0.138608 2.22222 1.3042 0.277216 2.22222 0.60903 0.271158 2.22222 1.21806 0.542316 2.22222 0.539345 0.391857 2.22222 1.07869 0.783714 2.22222 0.446087 0.49543 2.22222 0.892174 0.99086 2.22222 0.333333 0.57735 2.22222 0.666667 1.1547 2.22222 0.206011 0.634038 2.22222 0.412023 1.26808 2.22222 0.0696856 0.663015 2.22222 0.139371 1.32603 2.22222 -0.0696856 0.663015 2.22222 -0.139371 1.32603 2.22222 -0.206011 0.634038 2.22222 -0.412023 1.26808 2.22222 -0.333333 0.57735 2.22222 -0.666667 1.1547 2.22222 2 0 2.22222 1.9563 0.415823 2.22222 1.82709 0.813473 2.22222 1.61803 1.17557 2.22222 1.33826 1.48629 2.22222 1 1.73205 2.22222 0.618034 1.90211 2.22222 0.209057 1.98904 2.22222 -0.209057 1.98904 2.22222 -0.618034 1.90211 2.22222 -1 1.73205 2.22222 0.666667 0 3.33333 1.33333 0 3.33333 0.652098 0.138608 3.33333 1.3042 0.277216 3.33333 0.60903 0.271158 3.33333 1.21806 0.542316 3.33333 0.539345 0.391857 3.33333 1.07869 0.783714 3.33333 0.446087 0.49543 3.33333 0.892174 0.99086 3.33333 0.333333 0.57735 3.33333 0.666667 1.1547 3.33333 0.206011 0.634038 3.33333 0.412023 1.26808 3.33333 0.0696856 0.663015 3.33333 0.139371 1.32603 3.33333 -0.0696856 0.663015 3.33333 -0.139371 1.32603 3.33333 -0.206011 0.634038 3.33333 -0.412023 1.26808 3.33333 -0.333333 0.57735 3.33333 -0.666667 1.1547 3.33333 2 0 3.33333 1.9563 0.415823 3.33333 1.82709 0.813473 3.33333 1.61803 1.17557 3.33333 1.33826 1.48629 3.33333 1 1.73205 3.33333 0.618034 1.90211 3.33333 0.209057 1.98904 3.33333 -0.209057 1.98904 3.33333 -0.618034 1.90211 3.33333 -1 1.73205 3.33333 0.666667 0 4.44444 1.33333 0 4.44444 0.652098 0.138608 4.44444 1.3042 0.277216 4.44444 0.60903 0.271158 4.44444 1.21806 0.542316 4.44444 0.539345 0.391857 4.44444 1.07869 0.783714 4.44444 0.446087 0.49543 4.44444 0.892174 0.99086 4.44444 0.333333 0.57735 4.44444 0.666667 1.1547 4.44444 0.206011 0.634038 4.44444 0.412023 1.26808 4.44444 0.0696856 0.663015 4.44444 0.139371 1.32603 4.44444 -0.0696856 0.663015 4.44444 -0.139371 1.32603 4.44444 -0.206011 0.634038 4.44444 -0.412023 1.26808 4.44444 -0.333333 0.57735 4.44444 -0.666667 1.1547 4.44444 2 0 4.44444 1.9563 0.415823 4.44444 1.82709 0.813473 4.44444 1.61803 1.17557 4.44444 1.33826 1.48629 4.44444 1 1.73205 4.44444 0.618034 1.90211 4.44444 0.209057 1.98904 4.44444 -0.209057 1.98904 4.44444 -0.618034 1.90211 4.44444 -1 1.73205 4.44444 0.666667 0 5.55556 1.33333 0 5.55556 0.652098 0.138608 5.55556 1.3042 0.277216 5.55556 0.60903 0.271158 5.55556 1.21806 0.542316 5.55556 0.539345 0.391857 5.55556 1.07869 0.783714 5.55556 0.446087 0.49543 5.55556 0.892174 0.99086 5.55556 0.333333 0.57735 5.55556 0.666667 1.1547 5.55556 0.206011 0.634038 5.55556 0.412023 1.26808 5.55556 0.0696856 0.663015 5.55556 0.139371 1.32603 5.55556 -0.0696856 0.663015 5.55556 -0.139371 1.32603 5.55556 -0.206011 0.634038 5.55556 -0.412023 1.26808 5.55556 -0.333333 0.57735 5.55556 -0.666667 1.1547 5.55556 2 0 5.55556 1.9563 0.415823 5.55556 1.82709 0.813473 5.55556 1.61803 1.17557 5.55556 1.33826 1.48629 5.55556 1 1.73205 5.55556 0.618034 1.90211 5.55556 0.209057 1.98904 5.55556 -0.209057 1.98904 5.55556 -0.618034 1.90211 5.55556 -1 1.73205 5.55556 0.666667 0 6.66667 1.33333 0 6.66667 0.652098 0.138608 6.66667 1.3042 0.277216 6.66667 0.60903 0.271158 6.66667 1.21806 0.542316 6.66667 0.539345 0.391857 6.66667 1.07869 0.783714 6.66667 0.446087 0.49543 6.66667 0.892174 0.99086 6.66667 0.333333 0.57735 6.66667 0.666667 1.1547 6.66667 0.206011 0.634038 6.66667 0.412023 1.26808 6.66667 0.0696856 0.663015 6.66667 0.139371 1.32603 6.66667 -0.0696856 0.663015 6.66667 -0.139371 1.32603 6.66667 -0.206011 0.634038 6.66667 -0.412023 1.26808 6.66667 -0.333333 0.57735 6.66667 -0.666667 1.1547 6.66667 2 0 6.66667 1.9563 0.415823 6.66667 1.82709 0.813473 6.66667 1.61803 1.17557 6.66667 1.33826 1.48629 6.66667 1 1.73205 6.66667 0.618034 1.90211 6.66667 0.209057 1.98904 6.66667 -0.209057 1.98904 6.66667 -0.618034 1.90211 6.66667 -1 1.73205 6.66667 0.666667 0 7.77778 1.33333 0 7.77778 0.652098 0.138608 7.77778 1.3042 0.277216 7.77778 0.60903 0.271158 7.77778 1.21806 0.542316 7.77778 0.539345 0.391857 7.77778 1.07869 0.783714 7.77778 0.446087 0.49543 7.77778 0.892174 0.99086 7.77778 0.333333 0.57735 7.77778 0.666667 1.1547 7.77778 0.206011 0.634038 7.77778 0.412023 1.26808 7.77778 0.0696856 0.663015 7.77778 0.139371 1.32603 7.77778 -0.0696856 0.663015 7.77778 -0.139371 1.32603 7.77778 -0.206011 0.634038 7.77778 -0.412023 1.26808 7.77778 -0.333333 0.57735 7.77778 -0.666667 1.1547 7.77778 2 0 7.77778 1.9563 0.415823 7.77778 1.82709 0.813473 7.77778 1.61803 1.17557 7.77778 1.33826 1.48629 7.77778 1 1.73205 7.77778 0.618034 1.90211 7.77778 0.209057 1.98904 7.77778 -0.209057 1.98904 7.77778 -0.618034 1.90211 7.77778 -1 1.73205 7.77778 0.666667 0 8.88889 1.33333 0 8.88889 0.652098 0.138608 8.88889 1.3042 0.277216 8.88889 0.60903 0.271158 8.88889 1.21806 0.542316 8.88889 0.539345 0.391857 8.88889 1.07869 0.783714 8.88889 0.446087 0.49543 8.88889 0.892174 0.99086 8.88889 0.333333 0.57735 8.88889 0.666667 1.1547 8.88889 0.206011 0.634038 8.88889 0.412023 1.26808 8.88889 0.0696856 0.663015 8.88889 0.139371 1.32603 8.88889 -0.0696856 0.663015 8.88889 -0.139371 1.32603 8.88889 -0.206011 0.634038 8.88889 -0.412023 1.26808 8.88889 -0.333333 0.57735 8.88889 -0.666667 1.1547 8.88889 2 0 8.88889 1.9563 0.415823 8.88889 1.82709 0.813473 8.88889 1.61803 1.17557 8.88889 1.33826 1.48629 8.88889 1 1.73205 8.88889 0.618034 1.90211 8.88889 0.209057 1.98904 8.88889 -0.209057 1.98904 8.88889 -0.618034 1.90211 8.88889 -1 1.73205 8.88889 0.666667 0 10 1.33333 0 10 0.652098 0.138608 10 1.3042 0.277216 10 0.60903 0.271158 10 1.21806 0.542316 10 0.539345 0.391857 10 1.07869 0.783714 10 0.446087 0.49543 10 0.892174 0.99086 10 0.333333 0.57735 10 0.666667 1.1547 10 0.206011 0.634038 10 0.412023 1.26808 10 0.0696856 0.663015 10 0.139371 1.32603 10 -0.0696856 0.663015 10 -0.139371 1.32603 10 -0.206011 0.634038 10 -0.412023 1.26808 10 -0.333333 0.57735 10 -0.666667 1.1547 10 2 0 10 1.9563 0.415823 10 1.82709 0.813473 10 1.61803 1.17557 10 1.33826 1.48629 10 1 1.73205 10 0.618034 1.90211 10 0.209057 1.98904 10 -0.209057 1.98904 10 -0.618034 1.90211 10 -1 1.73205 10 -0.446087 0.49543 0 -0.446087 0.49543 1.11111 -0.892174 0.99086 1.11111 -0.892174 0.99086 0 -0.539345 0.391857 0 -0.539345 0.391857 1.11111 -1.07869 0.783714 1.11111 -1.07869 0.783714 0 -0.60903 0.271158 0 -0.60903 0.271158 1.11111 -1.21806 0.542316 1.11111 -1.21806 0.542316 0 -0.652098 0.138608 0 -0.652098 0.138608 1.11111 -1.3042 0.277216 1.11111 -1.3042 0.277216 0 -0.666667 2.30637e-16 0 -0.666667 2.30637e-16 1.11111 -1.33333 4.61274e-16 1.11111 -1.33333 4.61274e-16 0 -0.652098 -0.138608 0 -0.652098 -0.138608 1.11111 -1.3042 -0.277216 1.11111 -1.3042 -0.277216 0 -0.60903 -0.271158 0 -0.60903 -0.271158 1.11111 -1.21806 -0.542316 1.11111 -1.21806 -0.542316 0 -0.539345 -0.391857 0 -0.539345 -0.391857 1.11111 -1.07869 -0.783714 1.11111 -1.07869 -0.783714 0 -0.446087 -0.49543 0 -0.446087 -0.49543 1.11111 -0.892174 -0.99086 1.11111 -0.892174 -0.99086 0 -0.333333 -0.57735 0 -0.333333 -0.57735 1.11111 -0.666667 -1.1547 1.11111 -0.666667 -1.1547 0 -1.33826 1.48629 1.11111 -1.33826 1.48629 0 -1.61803 1.17557 1.11111 -1.61803 1.17557 0 -1.82709 0.813473 1.11111 -1.82709 0.813473 0 -1.9563 0.415823 1.11111 -1.9563 0.415823 0 -2 6.36372e-16 1.11111 -2 6.36372e-16 0 -1.9563 -0.415823 1.11111 -1.9563 -0.415823 0 -1.82709 -0.813473 1.11111 -1.82709 -0.813473 0 -1.61803 -1.17557 1.11111 -1.61803 -1.17557 0 -1.33826 -1.48629 1.11111 -1.33826 -1.48629 0 -1 -1.73205 1.11111 -1 -1.73205 0 -0.446087 0.49543 2.22222 -0.892174 0.99086 2.22222 -0.539345 0.391857 2.22222 -1.07869 0.783714 2.22222 -0.60903 0.271158 2.22222 -1.21806 0.542316 2.22222 -0.652098 0.138608 2.22222 -1.3042 0.277216 2.22222 -0.666667 2.30637e-16 2.22222 -1.33333 4.61274e-16 2.22222 -0.652098 -0.138608 2.22222 -1.3042 -0.277216 2.22222 -0.60903 -0.271158 2.22222 -1.21806 -0.542316 2.22222 -0.539345 -0.391857 2.22222 -1.07869 -0.783714 2.22222 -0.446087 -0.49543 2.22222 -0.892174 -0.99086 2.22222 -0.333333 -0.57735 2.22222 -0.666667 -1.1547 2.22222 -1.33826 1.48629 2.22222 -1.61803 1.17557 2.22222 -1.82709 0.813473 2.22222 -1.9563 0.415823 2.22222 -2 6.36372e-16 2.22222 -1.9563 -0.415823 2.22222 -1.82709 -0.813473 2.22222 -1.61803 -1.17557 2.22222 -1.33826 -1.48629 2.22222 -1 -1.73205 2.22222 -0.4
[...]
<PointData Scalars="Ec">
<DataArray type="Float32" Name="Ec" NumberOfComponents="1" format="ascii">
2.91973 2.80208 2.79994 2.91758 2.91973 2.80208 2.79994 2.91758 2.91973 2.80208 2.79994 2.91758 2.91973 2.80208 2.79994 2.91758 2.91973 2.80208 2.79994 2.91758 2.91973 2.80208 2.79994 2.91758 2.91973 2.80208 2.79994 2.91758 2.91973 2.80208 2.79994 2.91758 2.91973 2.80208 2.79994 2.91758 2.91973 2.80208 2.79994 2.91758 2.91973 2.80208 2.79994 2.91758 2.79641 2.91405 2.79641 2.91405 2.79641 2.91405 2.79641 2.91405 2.79641 2.91405 2.79641 2.91405 2.79641 2.91405 2.79641 2.91405 2.79641 2.91406 2.79641 2.91406 2.79641 2.91406 2.69782 2.69574 2.69782 2.69574 2.69782 2.69574 2.69782 2.69574 2.69782 2.69574 2.69782 2.69574 2.69782 2.69574 2.69782 2.69574 2.69782 2.69574 2.69782 2.69574 2.69782 2.69574 2.69213 2.69213 2.69213 2.69213 2.69213 2.69213 2.69213 2.69213 2.69213 2.69213 2.69213 2.60503 2.60311 2.60503 2.60311 2.60503 2.60311 2.60503 2.60311 2.60503 2.60311 2.60503 2.60311 2.60503 2.60311 2.60503 2.60311 2.60503 2.60311 2.60503 2.60311 2.60503 2.60311 2.5999 2.5999 2.5999 2.5999 2.5999 2.5999 2.5999 2.5999 2.5999 2.5999 2.5999 2.52128 2.51966 2.52128 2.51966 2.52128 2.51966 2.52128 2.51966 2.52128 2.51966 2.52128 2.51966 2.52128 2.51966 2.52128 2.51966 2.52128 2.51966 2.52128 2.51966 2.52128 2.51966 2.51692 2.51692 2.51692 2.51692 2.51692 2.51692 2.51692 2.51692 2.51692 2.51692 2.51692 2.44354 2.44247 2.44354 2.44247 2.44354 2.44247 2.44354 2.44247 2.44354 2.44247 2.44354 2.44247 2.44354 2.44247 2.44354 2.44247 2.44354 2.44247 2.44354 2.44247 2.44354 2.44247 2.44046 2.44046 2.44046 2.44046 2.44046 2.44046 2.44046 2.44046 2.44046 2.44046 2.44046 2.36712 2.36714 2.36712 2.36714 2.36712 2.36714 2.36712 2.36714 2.36712 2.36714 2.36712 2.36714 2.36712 2.36714 2.36712 2.36714 2.36712 2.36714 2.36712 2.36714 2.36712 2.36714 2.36687 2.36687 2.36687 2.36687 2.36687 2.36687 2.36687 2.36687 2.36687 2.36687 2.36687 2.28533 2.28692 2.28533 2.28692 2.28533 2.28692 2.28533 2.28692 2.28533 2.28692 2.28533 2.28692 2.28533 2.28692 2.28533 2.28692 2.28533 2.28692 2.28533 2.28692 2.28533 2.28692 2.28927 2.28927 2.28927 2.28927 2.28927 2.28927 2.28927 2.28927 2.28927 2.28927 2.28927 2.18918 2.1928 2.18918 2.1928 2.18918 2.1928 2.18918 2.1928 2.18918 2.1928 2.18918 2.1928 2.18918 2.1928 2.18918 2.1928 2.18918 2.1928 2.18918 2.1928 2.18918 2.1928 2.19823 2.19823 2.19823 2.19823 2.19823 2.19823 2.19823 2.19823 2.19823 2.19823 2.19823 2.06778 2.07305 2.06778 2.07305 2.06778 2.07305 2.06778 2.07305 2.06778 2.07305 2.06778 2.07305 2.06778 2.07305 2.06778 2.07305 2.06778 2.07305 2.06778 2.07305 2.06778 2.07305 2.08329 2.08329 2.08329 2.08329 2.08329 2.08329 2.08329 2.08329 2.08329 2.08329 2.08329 2.91973 2.80208 2.79994 2.91758 2.91973 2.80208 2.79994 2.91758 2.91973 2.80208 2.79994 2.91758 2.91973 2.80208 2.79994 2.91758 2.91973 2.80208 2.79994 2.91758 2.91973 2.80208 2.79994 2.91758 2.91973 2.80208 2.79994 2.91758 2.91973 2.80208 2.79994 2.91758 2.91973 2.80208 2.79994 2.91758 2.91973 2.80208 2.79994 2.91758 2.79641 2.91406 2.79641 2.91406 2.79641 2.91406 2.79641 2.91406 2.79641 2.91406 2.79641 2.91406 2.79641 2.91406 2.79641 2.91406 2.79641 2.91406 2.79641 2.91406 2.69782 2.69574 2.69782 2.69574 2.69782 2.69574 2.69782 2.69574 2.69782 2.69574 2.69782 2.69574 2.69782 2.69574 2.69782 2.69574 2.69782 2.69574 2.69782 2.69574 2.69213 2.69213 2.69213 2.69213 2.69213 2.69213 2.69213 2.69213 2.69213 2.69213 2.60503 2.60311 2.60503 2.60311 2.60503 2.60311 2.60503 2.60311 2.60503 2.60311 2.60503 2.60311 2.60503 2.60311 2.60503 2.60311 2.60503 2.60311 2.60503 2.60311 2.5999 2.5999 2.5999 2.5999 2.5999 2.5999 2.5999 2.5999 2.5999 2.5999 2.52128 2.51966 2.52128 2.51966 2.52128 2.51966 2.52128 2.51966 2.52128 2.51966 2.52128 2.51966 2.52128 2.51966 2.52128 2.51966 2.52128 2.51966 2.52128 2.51966 2.51692 2.51692 2.51692 2.51692 2.51692 2.51692 2.51692 2.51692 2.51692 2.51692 2.44354 2.44247 2.44354 2.44247 2.44354 2.44247 2.44354 2.44247 2.44354 2.44247 2.44354 2.44247 2.44354 2.44247 2.44354 2.44247 2.44354 2.44247 2.44354 2.44247 2.44046 2.44046 2.44046 2.44046 2.44046 2.44046 2.44046 2.44046 2.44046 2.44046 2.36712 2.36714 2.36712 2.36714 2.36712 2.36714 2.36712 2.36714 2.36712 2.36714 2.36712 2.36714 2.36712 2.36714 2.36712 2.36714 2.36712 2.36714 2.36712 2.36714 2.36687 2.36687 2.36687 2.36687 2.36687 2.36687 2.36687 2.36687 2.36687 2.36687 2.28533 2.28692 2.28533 2.28692 2.28533 2.28692 2.28533 2.28692 2.28533 2.28692 2.28533 2.28692 2.28533 2.28692 2.28533 2.28692 2.28533 2.28692 2.28533 2.28692 2.28927 2.28927 2.28927 2.28927 2.28927 2.28927 2.28927 2.28927 2.28927 2.28927 2.18918 2.1928 2.18918 2.1928 2.18918 2.1928 2.18918 2.1928 2.18918 2.1928 2.18918 2.1928 2.18918 2.1928 2.18918 2.1928 2.18918 2.1928 2.18918 2.1928 2.19823 2.19823 2.19823 2.19823 2.19823 2.19823 2.19823 2.19823 2.19823 2.19823 2.06778 2.07305 2.06778 2.07305 2.06778 2.07305 2.06778 2.07305 2.06778 2.07305 2.06778 2.07305 2.06778 2.07305 2.06778 2.07305 2.06778 2.07305 2.06778 2.07305 2.08329 2.08329 2.08329 2.08329 2.08329 2.08329 2.08329 2.08329 2.08329 2.08329 2.91973 2.80208 2.79994 2.91758 2.91973 2.80208 2.79994 2.91758 2.91973 2.80208 2.79994 2.91758 2.91973 2.80208 2.79994 2.91758 2.91973 2.80208 2.79994 2.91758 2.91973 2.80208 2.79994 2.91758 2.91973 2.80208 2.79994 2.91758 2.91973 2.80208 2.79994 2.91758 2.91973 2.80208 2.79994 2.91758 2.79641 2.91406 2.79641 2.91406 2.79641 2.91406 2.79641 2.91406 2.79641 2.91406 2.79641 2.91406 2.79641 2.91406 2.79641 2.91406 2.79641 2.91406 2.69782 2.69574 2.69782 2.69574 2.69782 2.69574 2.69782 2.69574 2.69782 2.69574 2.69782 2.69574 2.69782 2.69574 2.69782 2.69574 2.69782 2.69574 2.69213 2.69213 2.69213 2.69213 2.69213 2.69213 2.69213 2.69213 2.69213 2.60503 2.60311 2.60503 2.60311 2.60503 2.60311 2.60503 2.60311 2.60503 2.60311 2.60503 2.60311 2.60503 2.60311 2.60503 2.60311 2.60503 2.60311 2.5999 2.5999 2.5999 2.5999 2.5999 2.5999 2.5999 2.5999 2.5999 2.52128 2.51966 2.52128 2.51966 2.52128 2.51966 2.52128 2.51966 2.52128 2.51966 2.52128 2.51966 2.52128 2.51966 2.52128 2.51966 2.52128 2.51966 2.51692 2.51692 2.51692 2.51692 2.51692 2.51692 2.51692 2.51692 2.51692 2.44354 2.44247 2.44354 2.44247 2.44354 2.44247 2.44354 2.44247 2.44354 2.44247 2.44354 2.44247 2.44354 2.44247 2.44354 2.44247 2.44354 2.44247 2.44046 2.44046 2.44046 2.44046 2.44046 2.44046 2.44046 2.44046 2.44046 2.36712 2.36714 2.36712 2.36714 2.36712 2.36714 2.36712 2.36714 2.36712 2.36714 2.36712 2.36714 2.36712 2.36714 2.36712 2.36714 2.36712 2.36714 2.36687 2.36687 2.36687 2.36687 2.36687 2.36687 2.36687 2.36687 2.36687 2.28533 2.28692 2.28533 2.28692 2.28533 2.28692 2.28533 2.28692 2.28533 2.28692 2.28533 2.28692 2.28533 2.28692 2.28533 2.28692 2.28533 2.28692 2.28927 2.28927 2.28927 2.28927 2.28927 2.28927 2.28927 2.28927 2.28927 2.18918 2.1928 2.18918 2.1928 2.18918 2.1928 2.18918 2.1928 2.18918 2.1928 2.18918 2.1928 2.18918 2.1928 2.18918 2.1928 2.18918 2.1928 2.19823 2.19823 2.19823 2.19823 2.19823 2.19823 2.19823 2.19823 2.19823 2.06778 2.07305 2.06778 2.07305 2.06778 2.07305 2.06778 2.07305 2.06778 2.07305 2.06778 2.07305 2.06778 2.07305 2.06778 2.07305 2.06778 2.07305 2.08329 2.08329 2.08329 2.08329 2.08329 2.08329 2.08329 2.08329 2.08329 3.47744 3.26613 3.26461 3.47621 3.47744 3.26613 3.26461 3.47621 3.47744 3.26613 3.26461 3.47621 3.47744 3.26613 3.26461 3.47621 3.47744 3.26613 3.26461 3.47621 3.47744 3.26613 3.26461 3.47621 3.47744 3.26613 3.26461 3.47621 3.47744 3.26613 3.26461 3.47621 3.47744 3.26613 3.26461 3.47621 3.47744 3.26613 3.26461 3.47621 3.47744 3.26613 3.26461 3.47621 3.26207 3.47351 3.26207 3.47351 3.26207 3.47351 3.26207 3.47351 3.26207 3.47351 3.26207 3.47351 3.26207 3.47351 3.26207 3.47351 3.26207 3.47351 3.26207 3.47351 3.26207 3.47351 3.08091 3.07891 3.08091 3.07891 3.08091 3.07891 3.08091 3.07891 3.08091 3.07891 3.08091 3.07891 3.08091 3.07891 3.08091 3.07891 3.08091 3.07891 3.08091 3.07891 3.08091 3.07891 3.07509 3.07509 3.07509 3.07509 3.07509 3.07509 3.07509 3.07509 3.07509 3.07509 3.07509 3.47744 3.26614 3.26461 3.47621 3.47744 3.26614 3.26461 3.47621 3.47744 3.26614 3.26461 3.47621 3.47744 3.26614 3.26461 3.47621 3.47744 3.26614 3.26461 3.47621 3.47744 3.26614 3.26461 3.47621 3.47744 3.26614 3.26461 3.47622 3.47744 3.26614 3.26461 3.47622 3.47744 3.26614 3.26461 3.47622 3.47744 3.26614 3.26461 3.47622 3.26207 3.47351 3.26207 3.47351 3.26207 3.47351 3.26207 3.47351 3.26207 3.47351 3.26207 3.47352 3.26207 3.47352 3.26207 3.47352 3.26207 3.47352 3.26207 3.47352 3.08091 3.07891 3.08091 3.07891 3.08091 3.07891 3.08091 3.07891 3.08091 3.07891 3.08091 3.07891 3.08091 3.07891 3.08091 3.07891 3.08091 3.07891 3.08091 3.07891 3.07509 3.07509 3.07509 3.07509 3.07509 3.07509 3.07509 3.07509 3.07509 3.07509 3.47744 3.26614 3.26461 3.47622 3.47744 3.26614 3.26461 3.47621 3.47744 3.26614 3.26461 3.47621 3.47744 3.26614 3.26461 3.47621 3.47744 3.26614 3.26461 3.47621 3.47744 3.26614 3.26461 3.47621 3.47744 3.26614 3.26461 3.47621 3.47744 3.26613 3.26461 3.47621 3.47744 3.26613 3.26461 3.47621 3.26207 3.47352 3.26207 3.47351 3.26207 3.47351 3.26207 3.47351 3.26207 3.47351 3.26207 3.47351 3.26207 3.47351 3.26207 3.47351 3.26207 3.47351 3.08091 3.07891 3.08091 3.07891 3.08091 3.07891 3.08091 3.07891 3.08091 3.07891 3.08091 3.07891 3.08091 3.07891 3.08091 3.07891 3.08091 3.07891 3.07509 3.07509 3.07509 3.07509 3.07509 3.07509 3.07509 3.07509 3.07509 2.16012 2.16012 2.16012 2.16012 2.16012 2.16012 2.16012 2.16012 2.16012 2.16012 2.16012 2.10069 2.10069 2.10069 2.10069 2.10069 2.10069 2.10069 2.10069 2.10069 2.10069 2.10069 2.13694 2.13694 2.13694 2.13694 2.13694 2.13694 2.13694 2.13694 2.13694 2.13694 2.13694 2.20614 2.20614 2.20614 2.20614 2.20614 2.20614 2.20614 2.20614 2.20614 2.20614 2.20614 2.23086 2.21253 2.23086 2.21253 2.23086 2.21253 2.23086 2.21253 2.23086 2.21253 2.23086 2.21253 2.23086 2.21253 2.23086 2.21253 2.23086 2.21253 2.23086 2.21253 2.23086 2.21253 2.25283 2.25283 2.25283 2.25283 2.25283 2.25283 2.25283 2.25283 2.25283 2.25283 2.25283 2.25939 2.25939 2.25939 2.25939 2.25939 2.25939 2.25939 2.25939 2.25939 2.25939 2.25939 2.29467 2.29467 2.29467 2.29467 2.29467 2.29467 2.29467 2.29467 2.29467 2.29467 2.29467 2.29257 2.29257 2.29257 2.29257 2.29257 2.29257 2.29257 2.29257 2.29257 2.29257 2.29257 2.30019 2.30019 2.30019 2.30019 2.30019 2.30019 2.30019 2.30019 2.30019 2.3002 2.3002 2.74118 2.74118 2.74118 2.74118 2.74118 2.74118 2.74118 2.74118 2.74118 2.74118 2.74118 3.31359 3.46334 3.47098 3.31359 3.46334 3.47098 3.31359 3.46334 3.47098 3.31359 3.46334 3.47098 3.31359 3.46334 3.47098 3.31359 3.46334 3.47098 3.31359 3.46334 3.47098 3.31359 3.46334 3.47098 3.31359 3.46334 3.47098 3.31359 3.46334 3.47098 3.31359 3.46334 3.47098 2.43135 2.39604 2.44968 2.43135 2.39604 2.44968 2.43135 2.39604 2.44968 2.43135 2.39604 2.44968 2.43135 2.39604 2.44968 2.43135 2.39604 2.44968 2.43135 2.39604 2.44968 2.43135 2.39604 2.44968 2.43135 2.39604 2.44968 2.43135 2.39604 2.44968 2.43135 2.39604 2.44968 2.40368 2.40368 2.40368 2.40368 2.40368 2.40368 2.40368 2.40368 2.40368 2.40368 2.40368 2.3649 2.32874 2.3649 2.32874 2.3649 2.32874 2.3649 2.32874 2.3649 2.32874 2.3649 2.32874 2.3649 2.32874 2.3649 2.32874 2.3649 2.32874 2.3649 2.32874 2.3649 2.32874 2.48219 2.48219 2.48219 2.48219 2.48219 2.48219 2.48219 2.48219 2.48219 2.48219 2.48219 2.42642 2.38046 2.42214 2.42642 2.38046 2.42214 2.42642 2.38046 2.42214 2.42642 2.38046 2.42214 2.42642 2.38046 2.42214 2.42642 2.38046 2.42214 2.42642 2.38046 2.42214 2.42642 2.38046 2.42214 2.42642 2.38046 2.42214 2.42642 2.38046 2.42214 2.42642 2.38046 2.42214 2.65806 2.65806 2.65806 2.65806 2.65806 2.65806 2.65806 2.65806 2.65806 2.65806 2.65806 2.75813 2.6116 2.58947 2.75813 2.6116 2.58947 2.75813 2.6116 2.58947 2.75813 2.6116 2.58947 2.75813 2.6116 2.58947 2.75813 2.6116 2.58947 2.75813 2.6116 2.58947 2.75813 2.6116 2.58947 2.75813 2.6116 2.58947 2.75813 2.6116 2.58947 2.75813 2.6116 2.58947 2.49551 2.49551 2.49551 2.49551 2.49551 2.49551 2.49551 2.49551 2.49551 2.49551 2.49551 2.5594 2.56584 2.5594 2.56584 2.5594 2.56584 2.5594 2.56584 2.5594 2.56584 2.5594 2.56584 2.5594 2.56584 2.5594 2.56584 2.5594 2.56584 2.5594 2.56584 2.5594 2.56584 2.84191 2.84191 2.84191 2.84191 2.84191 2.84191 2.84191 2.84191 2.84191 2.84191 2.84191 3.39915 3.40879 3.24883 3.39915 3.40879 3.24883 3.39915 3.40879 3.24883 3.39915 3.40879 3.24883 3.39915 3.40879 3.24883 3.39915 3.40879 3.24883 3.39915 3.40879 3.24883 3.39915 3.40879 3.24883 3.39915 3.40879 3.24883 3.39915 3.40879 3.24883 3.39915 3.40879 3.24883 2.64544 2.64544 2.64544 2.64544 2.64544 2.64544 2.64544 2.64544 2.64544 2.64544 2.64544 2.96315 2.80996 3.0726 2.96315 2.80996 3.0726 2.96315 2.80996 3.0726 2.96315 2.80996 3.0726 2.96315 2.80996 3.0726 2.96315 2.80996 3.0726 2.96315 2.80996 3.0726 2.96315 2.80996 3.0726 2.96315 2.80996 3.0726 2.96315 2.80996 3.0726 2.96315 2.80996 3.0726 3.28291 3.28291 3.28291 3.28291 3.28291 3.28291 3.28291 3.28291 3.28291 3.28291 3.28292 3.13872 3.13872 3.13872 3.13872 3.13872 3.13872 3.13872 3.13872 3.13872 3.13872 3.13872 3.2033 3.36726 3.36724 3.2033 3.36726 3.36724 3.2033 3.36726 3.36724 3.2033 3.36726 3.36724 3.2033 3.36726 3.36724 3.2033 3.36726 3.36724 3.2033 3.36726 3.36724 3.2033 3.36726 3.36724 3.2033 3.36726 3.36724 3.2033 3.36726 3.36724 3.2033 3.36726 3.36724 3.15132 3.05906 2.96528 3.15132 3.05906 2.96528 3.15132 3.05906 2.96527 3.15132 3.05906 2.96527 3.15132 3.05906 2.96527 3.15132 3.05906 2.96527 3.15132 3.05906 2.96527 3.15132 3.05906 2.96528 3.15132 3.05906 2.96528 3.15132 3.05906 2.96528 3.15132 3.05906 2.96528 3.38289 3.38289 3.38289 3.38289 3.38289 3.38289 3.38289 3.38289 3.38289 3.38289 3.38289 2.4686 2.48907 2.4686 2.48907 2.4686 2.48907 2.4686 2.48907 2.4686 2.48907 2.4686 2.48907 2.4686 2.48907 2.4686 2.48907 2.4686 2.48907 2.4686 2.48907 2.4686 2.48907 2.8568 2.8568 2.8568 2.8568 2.8568 2.8568 2.8568 2.8568 2.8568 2.8568 2.8568 2.86839 2.86839 2.86839 2.86839 2.86839 2.86839 2.86839 2.86839 2.86839 2.86839 2.86839 2.49809 2.49809 2.49809 2.49809 2.49809 2.49809 2.49809 2.49809 2.49809 2.49809 2.49809 3.09532 3.09532 3.09532 3.09532 3.09532 3.09532 3.09532 3.09532 3.09532 3.09532 3.09533 3.45477 3.45477 3.45477 3.45477 3.45477 3.45477 3.45477 3.45477 3.45477 3.45477 3.45477 3.1051 3.10509 3.10509 3.10509 3.10509 3.10509 3.10509 3.10509 3.1051 3.1051 3.1051 3.1254 3.1254 3.1254 3.1254 3.1254 3.1254 3.1254 3.1254 3.1254 3.1254 3.1254 2.55957 2.66111 2.55957 2.66111 2.55957 2.66111 2.55957 2.66111 2.55957 2.66111 2.55957 2.66111 2.55957 2.66111 2.55957 2.66111 2.55957 2.66111 2.55957 2.66111 2.55957 2.66111 2.6221 2.6221 2.6221 2.6221 2.6221 2.6221 2.6221 2.6221 2.6221 2.6221 2.6221 2.62568 2.62568 2.62568 2.62568 2.62568 2.62568 2.62568 2.62568 2.62568 2.62568 2.62568 2.79049 2.70022 2.79049 2.70021 2.79049 2.70021 2.79049 2.70021 2.79049 2.70021 2.79049 2.70021 2.79049 2.70021 2.79049 2.70022 2.7905 2.70022 2.7905 2.70022 2.7905 2.70022 3.25186 3.25186 3.25186 3.25186 3.25185 3.25186 3.25186 3.25186 3.25186 3.25186 3.25186 2.92807 2.92807 2.92807 2.92807 2.92807 2.92807 2.92807 2.92807 2.92807 2.92807 2.92807 2.66346 2.78534 2.66346 2.78534 2.66346 2.78534 2.66346 2.78534 2.66346 2.78534 2.66346 2.78534 2.66346 2.78534 2.66346 2.78534 2.66346 2.78534 2.66346 2.78534 2.66346 2.78534 3.4219 3.4219 3.4219 3.4219 3.42189 3.4219 3.4219 3.4219 3.4219 3.4219 3.4219 2.54554 2.72845 2.54554 2.72845 2.54554 2.72845 2.54554 2.72845 2.54554 2.72845 2.54554 2.72845 2.54554 2.72845 2.54554 2.72845 2.54554 2.72845 2.54554 2.72845 2.54554 2.72845 2.56444 2.56444 2.56444 2.56444 2.56444 2.56444 2.56444 2.56444 2.56444 2.56444 2.56444 2.67763 2.71424 2.67763 2.71424 2.67763 2.71424 2.67763 2.71424 2.67763 2.71424 2.67763 2.71424 2.67763 2.71424 2.67763 2.71424 2.67763 2.71424 2.67763 2.71424 2.67763 2.71424 2.51342 2.51342 2.51342 2.51342 2.51342 2.51342 2.51342 2.51342 2.51342 2.51342 2.51342 2.78338 2.91595 2.87938 2.78338 2.91595 2.87938 2.78338 2.91595 2.87938 2.78338 2.91595 2.87938 2.78338 2.91595 2.87938 2.78338 2.91595 2.87938 2.78338 2.91595 2.87938 2.78338 2.91595 2.87938 2.78338 2.91595 2.87938 2.78338 2.91595 2.87938 2.78338 2.91595 2.87938 2.81195 2.81195 2.81195 2.81195 2.81195 2.81195 2.81195 2.81195 2.81195 2.81195 2.81195 2.69839 2.6141 2.69839 2.6141 2.69839 2.6141 2.69839 2.6141 2.69839 2.6141 2.69839 2.6141 2.69839 2.6141 2.69839 2.6141 2.69839 2.6141 2.69839 2.6141 2.69839 2.6141 2.7669 2.7669 2.7669 2.7669 2.7669 2.7669 2.7669 2.7669 2.7669 2.7669 2.7669 3.2487 3.43477 3.2487 3.43477 3.2487 3.43477 3.2487 3.43477 3.2487 3.43477 3.2487 3.43477 3.2487 3.43477 3.2487 3.43477 3.2487 3.43477 3.2487 3.43477 3.2487 3.43477 2.97481 2.8656 2.97481 2.8656 2.97481 2.8656 2.97481 2.8656 2.97481 2.8656 2.97481 2.8656 2.97481 2.8656 2.97481 2.8656 2.97481 2.8656 2.97481 2.8656 2.97481 2.8656 2.73695 2.73695 2.73695 2.73695 2.73695 2.73695 2.73695 2.73695 2.73695 2.73695 2.73695 3.35385 3.35385 3.35384 3.35384 3.35384 3.35384 3.35385 3.35385 3.35385 3.35385 3.35385 3.28676 3.28676 3.28676 3.28676 3.28676 3.28676 3.28676 3.28676 3.28676 3.28676 3.28676 3.44521 3.44521 3.44521 3.44521 3.44521 3.44521 3.44521 3.44521 3.44521 3.44522 3.44522 3.14006 3.14006 3.14006 3.14006 3.14006 3.14006 3.14006 3.14006 3.14006 3.14006 3.14006 2.60225 2.60225 2.60225 2.60225 2.60225 2.60225 2.60225 2.60225 2.60225 2.60225 2.60225 3.28414 3.13599 3.28414 3.13599 3.28414 3.13599 3.28414 3.13599 3.28414 3.13599 3.28414 3.13599 3.28414 3.13599 3.28414 3.13599 3.28414 3.13599 3.28415 3.13599 3.28415 3.13599 3.16099 3.16099 3.16099 3.16099 3.16099 3.16099 3.16099 3.16099 3.16099 3.16099 3.16099 2.56436 2.56436 2.56436 2.56436 2.56436 2.56436 2.56436 2.56436 2.56436 2.56436 2.56436 2.99378 2.99378 2.99378 2.99378 2.99378 2.99378 2.99378 2.99378 2.99378 2.99378 2.99378 2.34273 2.34273 2.34273 2.34273 2.34273 2.34273 2.34273 2.34273 2.34273 2.34273 2.34273 2.33927 2.33927 2.33927 2.33927 2.33927 2.33927 2.33927 2.33927 2.33927 2.33927 2.33927 2.55305 2.55305 2.55305 2.55305 2.55305 2.55305 2.55305 2.55305 2.55305 2.55305 2.55305 3.16044 3.16044 3.16044 3.16044 3.16044 3.16044 3.16044 3.16044 3.16044 3.16044 3.16044 3.01958 3.01958 3.01958 3.01958 3.01958 3.01958 3.01958 3.01958 3.01958 3.01958 3.01958 3.00352 3.00352 3.00352 3.00352 3.00352 3.00352 3.00352 3.00352 3.00352 3.00352 3.00352 2.37641 2.37641 2.37641 2.37641 2.37641 2.37641 2.37641 2.37641 2.37641 2.37641 2.37641 3.00352 3.00352 3.00352 3.00352 3.00352 3.00352 3.00352 3.00352 3.00352 3.00352 3.00352 2.8696 2.8696 2.8696 2.8696 2.8696 2.8696 2.8696 2.8696 2.86961 2.86961 2.86961 2.16012 2.16012 2.16012 2.16012 2.16012 2.16012 2.16012 2.16012 2.16012 2.16012 2.10069 2.10069 2.10069 2.10069 2.10069 2.10069 2.10069 2.10069 2.10069 2.10069 2.13694 2.13694 2.13694 2.13694 2.13694 2.13694 2.13694 2.13694 2.13694 2.13694 2.20614 2.20614 2.20614 2.20614 2.20614 2.20614 2.20614 2.20614 2.20614 2.20614 2.23086 2.21253 2.23086 2.21253 2.23086 2.21253 2.23086 2.21253 2.23086 2.21253 2.23086 2.21253 2.23086 2.21253 2.23086 2.21253 2.23086 2.21253 2.23086 2.21253 2.25283 2.25283 2.25283 2.25283 2.25283 2.25283 2.25283 2.25283 2.25283 2.25283 2.25939 2.25939 2.25939 2.25939 2.25939 2.25939 2.25939 2.25939 2.25939 2.25939 2.29467 2.29467 2.29467 2.29467 2.29467 2.29467 2.29467 2.29467 2.29467 2.29467 2.29257 2.29257 2.29257 2.29257 2.29257 2.29257 2.29257 2.29257 2.29257 2.29257 2.3002 2.3002 2.3002 2.3002 2.3002 2.3002 2.3002 2.3002 2.3002 2.3002 2.74118 2.74118 2.74118 2.74118 2.74118 2.74118 2.74118 2.74118 2.74118 2.74118 3.31359 3.46334 3.47099 3.31359 3.46334 3.47099 3.31359 3.46334 3.47099 3.31359 3.46334 3.47099 3.3136 3.46334 3.47099 3.3136 3.46334 3.47099 3.3136 3.46334 3.47099 3.3136 3.46334 3.47099 3.3136 3.46334 3.47099 3.3136 3.46334 3.47099 2.43135 2.39604 2.44968 2.43135 2.39604 2.44968 2.43135 2.39604 2.44968 2.43135 2.39604 2.44968 2.43135 2.39604 2.44968 2.43135 2.39604 2.44968 2.43135 2.39604 2.44968 2.43135 2.39604 2.44968 2.43135 2.39604 2.44968 2.43135 2.39604 2.44968 2.40368 2.40368 2.