<VTKFile type="UnstructuredGrid" version="0.1" byte_order="LittleEndian">
<UnstructuredGrid>
<Piece NumberOfPoints="4363" NumberOfCells="6780">
<Points>
<DataArray type="Float32" NumberOfComponents="3" format="ascii">
0.666667 0 0 0.666667 0 1.11111 1.33333 0 1.11111 1.33333 0 0 0.652098 0.138608 0 0.652098 0.138608 1.11111 1.3042 0.277216 1.11111 1.3042 0.277216 0 0.60903 0.271158 0 0.60903 0.271158 1.11111 1.21806 0.542316 1.11111 1.21806 0.542316 0 0.539345 0.391857 0 0.539345 0.391857 1.11111 1.07869 0.783714 1.11111 1.07869 0.783714 0 0.446087 0.49543 0 0.446087 0.49543 1.11111 0.892174 0.99086 1.11111 0.892174 0.99086 0 0.333333 0.57735 0 0.333333 0.57735 1.11111 0.666667 1.1547 1.11111 0.666667 1.1547 0 0.206011 0.634038 0 0.206011 0.634038 1.11111 0.412023 1.26808 1.11111 0.412023 1.26808 0 0.0696856 0.663015 0 0.0696856 0.663015 1.11111 0.139371 1.32603 1.11111 0.139371 1.32603 0 -0.0696856 0.663015 0 -0.0696856 0.663015 1.11111 -0.139371 1.32603 1.11111 -0.139371 1.32603 0 -0.206011 0.634038 0 -0.206011 0.634038 1.11111 -0.412023 1.26808 1.11111 -0.412023 1.26808 0 -0.333333 0.57735 0 -0.333333 0.57735 1.11111 -0.666667 1.1547 1.11111 -0.666667 1.1547 0 2 0 1.11111 2 0 0 1.9563 0.415823 1.11111 1.9563 0.415823 0 1.82709 0.813473 1.11111 1.82709 0.813473 0 1.61803 1.17557 1.11111 1.61803 1.17557 0 1.33826 1.48629 1.11111 1.33826 1.48629 0 1 1.73205 1.11111 1 1.73205 0 0.618034 1.90211 1.11111 0.618034 1.90211 0 0.209057 1.98904 1.11111 0.209057 1.98904 0 -0.209057 1.98904 1.11111 -0.209057 1.98904 0 -0.618034 1.90211 1.11111 -0.618034 1.90211 0 -1 1.73205 1.11111 -1 1.73205 0 0.666667 0 2.22222 1.33333 0 2.22222 0.652098 0.138608 2.22222 1.3042 0.277216 2.22222 0.60903 0.271158 2.22222 1.21806 0.542316 2.22222 0.539345 0.391857 2.22222 1.07869 0.783714 2.22222 0.446087 0.49543 2.22222 0.892174 0.99086 2.22222 0.333333 0.57735 2.22222 0.666667 1.1547 2.22222 0.206011 0.634038 2.22222 0.412023 1.26808 2.22222 0.0696856 0.663015 2.22222 0.139371 1.32603 2.22222 -0.0696856 0.663015 2.22222 -0.139371 1.32603 2.22222 -0.206011 0.634038 2.22222 -0.412023 1.26808 2.22222 -0.333333 0.57735 2.22222 -0.666667 1.1547 2.22222 2 0 2.22222 1.9563 0.415823 2.22222 1.82709 0.813473 2.22222 1.61803 1.17557 2.22222 1.33826 1.48629 2.22222 1 1.73205 2.22222 0.618034 1.90211 2.22222 0.209057 1.98904 2.22222 -0.209057 1.98904 2.22222 -0.618034 1.90211 2.22222 -1 1.73205 2.22222 0.666667 0 3.33333 1.33333 0 3.33333 0.652098 0.138608 3.33333 1.3042 0.277216 3.33333 0.60903 0.271158 3.33333 1.21806 0.542316 3.33333 0.539345 0.391857 3.33333 1.07869 0.783714 3.33333 0.446087 0.49543 3.33333 0.892174 0.99086 3.33333 0.333333 0.57735 3.33333 0.666667 1.1547 3.33333 0.206011 0.634038 3.33333 0.412023 1.26808 3.33333 0.0696856 0.663015 3.33333 0.139371 1.32603 3.33333 -0.0696856 0.663015 3.33333 -0.139371 1.32603 3.33333 -0.206011 0.634038 3.33333 -0.412023 1.26808 3.33333 -0.333333 0.57735 3.33333 -0.666667 1.1547 3.33333 2 0 3.33333 1.9563 0.415823 3.33333 1.82709 0.813473 3.33333 1.61803 1.17557 3.33333 1.33826 1.48629 3.33333 1 1.73205 3.33333 0.618034 1.90211 3.33333 0.209057 1.98904 3.33333 -0.209057 1.98904 3.33333 -0.618034 1.90211 3.33333 -1 1.73205 3.33333 0.666667 0 4.44444 1.33333 0 4.44444 0.652098 0.138608 4.44444 1.3042 0.277216 4.44444 0.60903 0.271158 4.44444 1.21806 0.542316 4.44444 0.539345 0.391857 4.44444 1.07869 0.783714 4.44444 0.446087 0.49543 4.44444 0.892174 0.99086 4.44444 0.333333 0.57735 4.44444 0.666667 1.1547 4.44444 0.206011 0.634038 4.44444 0.412023 1.26808 4.44444 0.0696856 0.663015 4.44444 0.139371 1.32603 4.44444 -0.0696856 0.663015 4.44444 -0.139371 1.32603 4.44444 -0.206011 0.634038 4.44444 -0.412023 1.26808 4.44444 -0.333333 0.57735 4.44444 -0.666667 1.1547 4.44444 2 0 4.44444 1.9563 0.415823 4.44444 1.82709 0.813473 4.44444 1.61803 1.17557 4.44444 1.33826 1.48629 4.44444 1 1.73205 4.44444 0.618034 1.90211 4.44444 0.209057 1.98904 4.44444 -0.209057 1.98904 4.44444 -0.618034 1.90211 4.44444 -1 1.73205 4.44444 0.666667 0 5.55556 1.33333 0 5.55556 0.652098 0.138608 5.55556 1.3042 0.277216 5.55556 0.60903 0.271158 5.55556 1.21806 0.542316 5.55556 0.539345 0.391857 5.55556 1.07869 0.783714 5.55556 0.446087 0.49543 5.55556 0.892174 0.99086 5.55556 0.333333 0.57735 5.55556 0.666667 1.1547 5.55556 0.206011 0.634038 5.55556 0.412023 1.26808 5.55556 0.0696856 0.663015 5.55556 0.139371 1.32603 5.55556 -0.0696856 0.663015 5.55556 -0.139371 1.32603 5.55556 -0.206011 0.634038 5.55556 -0.412023 1.26808 5.55556 -0.333333 0.57735 5.55556 -0.666667 1.1547 5.55556 2 0 5.55556 1.9563 0.415823 5.55556 1.82709 0.813473 5.55556 1.61803 1.17557 5.55556 1.33826 1.48629 5.55556 1 1.73205 5.55556 0.618034 1.90211 5.55556 0.209057 1.98904 5.55556 -0.209057 1.98904 5.55556 -0.618034 1.90211 5.55556 -1 1.73205 5.55556 0.666667 0 6.66667 1.33333 0 6.66667 0.652098 0.138608 6.66667 1.3042 0.277216 6.66667 0.60903 0.271158 6.66667 1.21806 0.542316 6.66667 0.539345 0.391857 6.66667 1.07869 0.783714 6.66667 0.446087 0.49543 6.66667 0.892174 0.99086 6.66667 0.333333 0.57735 6.66667 0.666667 1.1547 6.66667 0.206011 0.634038 6.66667 0.412023 1.26808 6.66667 0.0696856 0.663015 6.66667 0.139371 1.32603 6.66667 -0.0696856 0.663015 6.66667 -0.139371 1.32603 6.66667 -0.206011 0.634038 6.66667 -0.412023 1.26808 6.66667 -0.333333 0.57735 6.66667 -0.666667 1.1547 6.66667 2 0 6.66667 1.9563 0.415823 6.66667 1.82709 0.813473 6.66667 1.61803 1.17557 6.66667 1.33826 1.48629 6.66667 1 1.73205 6.66667 0.618034 1.90211 6.66667 0.209057 1.98904 6.66667 -0.209057 1.98904 6.66667 -0.618034 1.90211 6.66667 -1 1.73205 6.66667 0.666667 0 7.77778 1.33333 0 7.77778 0.652098 0.138608 7.77778 1.3042 0.277216 7.77778 0.60903 0.271158 7.77778 1.21806 0.542316 7.77778 0.539345 0.391857 7.77778 1.07869 0.783714 7.77778 0.446087 0.49543 7.77778 0.892174 0.99086 7.77778 0.333333 0.57735 7.77778 0.666667 1.1547 7.77778 0.206011 0.634038 7.77778 0.412023 1.26808 7.77778 0.0696856 0.663015 7.77778 0.139371 1.32603 7.77778 -0.0696856 0.663015 7.77778 -0.139371 1.32603 7.77778 -0.206011 0.634038 7.77778 -0.412023 1.26808 7.77778 -0.333333 0.57735 7.77778 -0.666667 1.1547 7.77778 2 0 7.77778 1.9563 0.415823 7.77778 1.82709 0.813473 7.77778 1.61803 1.17557 7.77778 1.33826 1.48629 7.77778 1 1.73205 7.77778 0.618034 1.90211 7.77778 0.209057 1.98904 7.77778 -0.209057 1.98904 7.77778 -0.618034 1.90211 7.77778 -1 1.73205 7.77778 0.666667 0 8.88889 1.33333 0 8.88889 0.652098 0.138608 8.88889 1.3042 0.277216 8.88889 0.60903 0.271158 8.88889 1.21806 0.542316 8.88889 0.539345 0.391857 8.88889 1.07869 0.783714 8.88889 0.446087 0.49543 8.88889 0.892174 0.99086 8.88889 0.333333 0.57735 8.88889 0.666667 1.1547 8.88889 0.206011 0.634038 8.88889 0.412023 1.26808 8.88889 0.0696856 0.663015 8.88889 0.139371 1.32603 8.88889 -0.0696856 0.663015 8.88889 -0.139371 1.32603 8.88889 -0.206011 0.634038 8.88889 -0.412023 1.26808 8.88889 -0.333333 0.57735 8.88889 -0.666667 1.1547 8.88889 2 0 8.88889 1.9563 0.415823 8.88889 1.82709 0.813473 8.88889 1.61803 1.17557 8.88889 1.33826 1.48629 8.88889 1 1.73205 8.88889 0.618034 1.90211 8.88889 0.209057 1.98904 8.88889 -0.209057 1.98904 8.88889 -0.618034 1.90211 8.88889 -1 1.73205 8.88889 0.666667 0 10 1.33333 0 10 0.652098 0.138608 10 1.3042 0.277216 10 0.60903 0.271158 10 1.21806 0.542316 10 0.539345 0.391857 10 1.07869 0.783714 10 0.446087 0.49543 10 0.892174 0.99086 10 0.333333 0.57735 10 0.666667 1.1547 10 0.206011 0.634038 10 0.412023 1.26808 10 0.0696856 0.663015 10 0.139371 1.32603 10 -0.0696856 0.663015 10 -0.139371 1.32603 10 -0.206011 0.634038 10 -0.412023 1.26808 10 -0.333333 0.57735 10 -0.666667 1.1547 10 2 0 10 1.9563 0.415823 10 1.82709 0.813473 10 1.61803 1.17557 10 1.33826 1.48629 10 1 1.73205 10 0.618034 1.90211 10 0.209057 1.98904 10 -0.209057 1.98904 10 -0.618034 1.90211 10 -1 1.73205 10 -0.446087 0.49543 0 -0.446087 0.49543 1.11111 -0.892174 0.99086 1.11111 -0.892174 0.99086 0 -0.539345 0.391857 0 -0.539345 0.391857 1.11111 -1.07869 0.783714 1.11111 -1.07869 0.783714 0 -0.60903 0.271158 0 -0.60903 0.271158 1.11111 -1.21806 0.542316 1.11111 -1.21806 0.542316 0 -0.652098 0.138608 0 -0.652098 0.138608 1.11111 -1.3042 0.277216 1.11111 -1.3042 0.277216 0 -0.666667 2.30637e-16 0 -0.666667 2.30637e-16 1.11111 -1.33333 4.61274e-16 1.11111 -1.33333 4.61274e-16 0 -0.652098 -0.138608 0 -0.652098 -0.138608 1.11111 -1.3042 -0.277216 1.11111 -1.3042 -0.277216 0 -0.60903 -0.271158 0 -0.60903 -0.271158 1.11111 -1.21806 -0.542316 1.11111 -1.21806 -0.542316 0 -0.539345 -0.391857 0 -0.539345 -0.391857 1.11111 -1.07869 -0.783714 1.11111 -1.07869 -0.783714 0 -0.446087 -0.49543 0 -0.446087 -0.49543 1.11111 -0.892174 -0.99086 1.11111 -0.892174 -0.99086 0 -0.333333 -0.57735 0 -0.333333 -0.57735 1.11111 -0.666667 -1.1547 1.11111 -0.666667 -1.1547 0 -1.33826 1.48629 1.11111 -1.33826 1.48629 0 -1.61803 1.17557 1.11111 -1.61803 1.17557 0 -1.82709 0.813473 1.11111 -1.82709 0.813473 0 -1.9563 0.415823 1.11111 -1.9563 0.415823 0 -2 6.36372e-16 1.11111 -2 6.36372e-16 0 -1.9563 -0.415823 1.11111 -1.9563 -0.415823 0 -1.82709 -0.813473 1.11111 -1.82709 -0.813473 0 -1.61803 -1.17557 1.11111 -1.61803 -1.17557 0 -1.33826 -1.48629 1.11111 -1.33826 -1.48629 0 -1 -1.73205 1.11111 -1 -1.73205 0 -0.446087 0.49543 2.22222 -0.892174 0.99086 2.22222 -0.539345 0.391857 2.22222 -1.07869 0.783714 2.22222 -0.60903 0.271158 2.22222 -1.21806 0.542316 2.22222 -0.652098 0.138608 2.22222 -1.3042 0.277216 2.22222 -0.666667 2.30637e-16 2.22222 -1.33333 4.61274e-16 2.22222 -0.652098 -0.138608 2.22222 -1.3042 -0.277216 2.22222 -0.60903 -0.271158 2.22222 -1.21806 -0.542316 2.22222 -0.539345 -0.391857 2.22222 -1.07869 -0.783714 2.22222 -0.446087 -0.49543 2.22222 -0.892174 -0.99086 2.22222 -0.333333 -0.57735 2.22222 -0.666667 -1.1547 2.22222 -1.33826 1.48629 2.22222 -1.61803 1.17557 2.22222 -1.82709 0.813473 2.22222 -1.9563 0.415823 2.22222 -2 6.36372e-16 2.22222 -1.9563 -0.415823 2.22222 -1.82709 -0.813473 2.22222 -1.61803 -1.17557 2.22222 -1.33826 -1.48629 2.22222 -1 -1.73205 2.22222 -0.4
[...]
<CellData Vectors="piezoPolarization">
<DataArray type="Float32" Name="strain" NumberOfComponents="6" format="ascii">
-0.00248018 -0.00248371 -0.00315191 3.74857e-07 2.65367e-05 0.00025248 -0.00248049 -0.00248341 -0.00315191 1.06049e-06 7.84504e-05 0.000241446 -0.00248104 -0.00248285 -0.00315191 1.56181e-06 0.000126935 0.000219859 -0.00248176 -0.00248214 -0.00315191 1.79388e-06 0.000169873 0.000188663 -0.0024825 -0.00248139 -0.00315191 1.71552e-06 0.000205386 0.000149222 -0.00248315 -0.00248074 -0.00315191 1.34025e-06 0.000231923 0.000103259 -0.00248359 -0.0024803 -0.00315191 7.33827e-07 0.000248323 5.27827e-05 -0.00248375 -0.00248014 -0.00315191 -1.25767e-17 0.000253871 -4.94342e-16 -0.00248359 -0.0024803 -0.00315191 -7.33827e-07 0.000248323 -5.27827e-05 -0.00248315 -0.00248074 -0.00315191 -1.34025e-06 0.000231923 -0.000103259 -0.00246875 -0.00247988 -0.00315766 1.18288e-06 4.44303e-05 0.000422726 -0.00246971 -0.00247892 -0.00315766 3.34458e-06 0.000131349 0.000404251 -0.00247147 -0.00247716 -0.00315766 4.92746e-06 0.000212527 0.000368108 -0.00247372 -0.00247491 -0.00315766 5.65872e-06 0.000284417 0.000315877 -0.00247607 -0.00247256 -0.00315766 5.41144e-06 0.000343876 0.000249841 -0.00247812 -0.00247051 -0.00315766 4.22835e-06 0.000388307 0.000172885 -0.00247951 -0.00246912 -0.00315766 2.31432e-06 0.000415766 8.83739e-05 -0.00248 -0.00246862 -0.00315766 1.25767e-17 0.000425055 -1.72388e-17 -0.00247951 -0.00246912 -0.00315766 -2.31432e-06 0.000415766 -8.83739e-05 -0.00247812 -0.00247051 -0.00315766 -4.22835e-06 0.000388307 -0.000172885 -0.00238363 -0.0023907 -0.00349942 7.51445e-07 2.31097e-05 0.000219875 -0.00238424 -0.00239009 -0.00349942 2.12471e-06 6.83193e-05 0.000210265 -0.00238536 -0.00238897 -0.00349942 3.12983e-06 0.000110543 0.000191466 -0.00238679 -0.00238754 -0.00349942 3.59461e-06 0.000147936 0.000164299 -0.00238828 -0.00238605 -0.00349942 3.43755e-06 0.000178862 0.000129951 -0.00238958 -0.00238475 -0.00349942 2.68579e-06 0.000201972 8.99238e-05 -0.00239047 -0.00238386 -0.00349942 1.47028e-06 0.000216255 4.59664e-05 -0.00239078 -0.00238355 -0.00349942 -2.14672e-17 0.000221086 -4.52288e-16 -0.00239047 -0.00238386 -0.00349942 -1.47028e-06 0.000216255 -4.59664e-05 -0.00238958 -0.00238475 -0.00349942 -2.68579e-06 0.000201972 -8.99238e-05 -0.00236455 -0.00238383 -0.00351342 2.04864e-06 3.81785e-05 0.000363244 -0.00236622 -0.00238216 -0.00351342 5.79211e-06 0.000112867 0.000347369 -0.00236926 -0.00237912 -0.00351342 8.5336e-06 0.000182623 0.000316312 -0.00237316 -0.00237522 -0.00351342 9.79988e-06 0.000244397 0.00027143 -0.00237724 -0.00237115 -0.00351342 9.37161e-06 0.00029549 0.000214686 -0.00238078 -0.0023676 -0.00351342 7.32283e-06 0.000333668 0.000148559 -0.00238319 -0.00236519 -0.00351342 4.00797e-06 0.000357264 7.59388e-05 -0.00238404 -0.00236434 -0.00351342 -1.04083e-17 0.000365245 8.34836e-17 -0.00238319 -0.00236519 -0.00351342 -4.00797e-06 0.000357264 -7.59388e-05 -0.00238078 -0.0023676 -0.00351342 -7.32283e-06 0.000333668 -0.000148559 -0.00235963 -0.00236906 -0.00375827 1.00206e-06 1.79599e-05 0.000170877 -0.00236044 -0.00236824 -0.00375827 2.83325e-06 5.30947e-05 0.000163409 -0.00236193 -0.00236675 -0.00375827 4.17382e-06 8.59091e-05 0.000148799 -0.00236384 -0.00236485 -0.00375827 4.79351e-06 0.000114969 0.000127686 -0.00236583 -0.00236285 -0.00375827 4.58412e-06 0.000139004 0.000100992 -0.00236757 -0.00236112 -0.00375827 3.58161e-06 0.000156964 6.98847e-05 -0.00236875 -0.00235994 -0.00375827 1.96054e-06 0.000168063 3.5723e-05 -0.00236916 -0.00235952 -0.00375827 1.85399e-17 0.000171818 -1.45148e-16 -0.00236875 -0.00235994 -0.00375827 -1.96054e-06 0.000168063 -3.5723e-05 -0.00236757 -0.00236112 -0.00375827 -3.58161e-06 0.000156964 -6.98847e-05 -0.00233715 -0.00236052 -0.00377851 2.48365e-06 3.02659e-05 0.000287961 -0.00233917 -0.0023585 -0.00377851 7.02184e-06 8.94749e-05 0.000275375 -0.00234286 -0.00235481 -0.00377851 1.03455e-05 0.000144773 0.000250755 -0.00234758 -0.00235008 -0.00377851 1.18807e-05 0.000193745 0.000215175 -0.00235252 -0.00234514 -0.00377851 1.13615e-05 0.000234248 0.000170191 -0.00235683 -0.00234084 -0.00377851 8.87761e-06 0.000264514 0.000117769 -0.00235975 -0.00233792 -0.00377851 4.85892e-06 0.00028322 6.02001e-05 -0.00236078 -0.00233689 -0.00377851 -1.30104e-18 0.000289547 1.96132e-16 -0.00235975 -0.00233792 -0.00377851 -4.85892e-06 0.00028322 -6.02001e-05 -0.00235683 -0.00234084 -0.00377851 -8.87761e-06 0.000264514 -0.000117769 -0.00240405 -0.0024165 -0.00392015 1.3223e-06 1.26332e-05 0.000120196 -0.00240513 -0.00241542 -0.00392015 3.73898e-06 3.73472e-05 0.000114943 -0.0024071 -0.00241346 -0.00392015 5.50839e-06 6.0429e-05 0.000104666 -0.00240961 -0.00241094 -0.00392015 6.32598e-06 8.08699e-05 8.98151e-05 -0.00241224 -0.00240831 -0.00392015 6.04959e-06 9.77763e-05 7.10386e-05 -0.00241453 -0.00240602 -0.00392015 4.72683e-06 0.000110409 4.91574e-05 -0.00241609 -0.00240447 -0.00392015 2.58722e-06 0.000118217 2.51278e-05 -0.00241664 -0.00240392 -0.00392015 -4.77049e-18 0.000120858 -5.46729e-16 -0.00241609 -0.00240447 -0.00392015 -2.58722e-06 0.000118217 -2.51278e-05 -0.00241453 -0.00240602 -0.00392015 -4.72683e-06 0.000110409 -4.91574e-05 -0.00237266 -0.00240487 -0.00397321 3.4228e-06 2.22122e-05 0.000211335 -0.00237544 -0.00240208 -0.00397321 9.67698e-06 6.56657e-05 0.000202098 -0.00238053 -0.00239699 -0.00397321 1.42576e-05 0.000106249 0.000184029 -0.00238704 -0.00239048 -0.00397321 1.63732e-05 0.000142189 0.000157917 -0.00239385 -0.00238367 -0.00397321 1.56576e-05 0.000171915 0.000124904 -0.00239978 -0.00237775 -0.00397321 1.22346e-05 0.000194127 8.64311e-05 -0.0024038 -0.00237372 -0.00397321 6.69621e-06 0.000207855 4.4181e-05 -0.00240523 -0.0023723 -0.00397321 7.80626e-18 0.000212499 7.92958e-17 -0.0024038 -0.00237372 -0.00397321 -6.69621e-06 0.000207855 -4.4181e-05 -0.00239978 -0.00237775 -0.00397321 -1.22346e-05 0.000194127 -8.64311e-05 -0.00250667 -0.00252586 -0.00397978 2.03878e-06 5.11513e-06 4.86667e-05 -0.00250833 -0.0025242 -0.00397978 5.76459e-06 1.51217e-05 4.65398e-05 -0.00251136 -0.00252117 -0.00397978 8.49294e-06 2.44674e-05 4.23788e-05 -0.00251524 -0.00251729 -0.00397978 9.75325e-06 3.27438e-05 3.63657e-05 -0.00251929 -0.00251323 -0.00397978 9.32708e-06 3.95891e-05 2.87631e-05 -0.00252283 -0.0025097 -0.00397978 7.28791e-06 4.47042e-05 1.99036e-05 -0.00252522 -0.0025073 -0.00397978 3.98889e-06 4.78655e-05 1.01741e-05 -0.00252607 -0.00250646 -0.00397978 1.97325e-17 4.89348e-05 -9.98625e-16 -0.00252522 -0.0025073 -0.00397978 -3.98889e-06 4.78655e-05 -1.01741e-05 -0.00252283 -0.0025097 -0.00397978 -7.28791e-06 4.47042e-05 -1.99036e-05 -0.00245617 -0.00250748 -0.00405882 5.45323e-06 1.02205e-05 9.72411e-05 -0.0024606 -0.00250304 -0.00405882 1.54174e-05 3.02147e-05 9.29912e-05 -0.00246871 -0.00249494 -0.00405882 2.27153e-05 4.88883e-05 8.46772e-05 -0.00247908 -0.00248456 -0.00405882 2.60857e-05 6.54254e-05 7.26623e-05 -0.00248993 -0.00247372 -0.00405882 2.49457e-05 7.91031e-05 5.74717e-05 -0.00249937 -0.00246427 -0.00405882 1.94922e-05 8.93235e-05 3.97694e-05 -0.00250578 -0.00245786 -0.00405882 1.06684e-05 9.56401e-05 2.03289e-05 -0.00250805 -0.00245559 -0.00405882 2.04914e-17 9.77768e-05 -1.06997e-16 -0.00250578 -0.00245786 -0.00405882 -1.06684e-05 9.56401e-05 -2.03289e-05 -0.00249937 -0.00246427 -0.00405882 -1.94922e-05 8.93235e-05 -3.97694e-05 -0.00268294 -0.00270693 -0.00389226 2.54983e-06 -5.24099e-06 -4.98646e-05 -0.00268501 -0.00270486 -0.00389226 7.20906e-06 -1.54939e-05 -4.76853e-05 -0.0026888 -0.00270107 -0.00389226 1.06212e-05 -2.50697e-05 -4.34219e-05 -0.00269366 -0.00269622 -0.00389226 1.21974e-05 -3.35498e-05 -3.72607e-05 -0.00269873 -0.00269115 -0.00389226 1.16644e-05 -4.05635e-05 -2.94712e-05 -0.00270314 -0.00268673 -0.00389226 9.11418e-06 -4.58045e-05 -2.03935e-05 -0.00270614 -0.00268373 -0.00389226 4.98849e-06 -4.90436e-05 -1.04245e-05 -0.0027072 -0.00268267 -0.00389226 2.29851e-17 -5.01393e-05 -1.26574e-16 -0.00270614 -0.00268373 -0.00389226 -4.98849e-06 -4.90436e-05 1.04245e-05 -0.00270314 -0.00268673 -0.00389226 -9.11418e-06 -4.58045e-05 2.03935e-05 -0.0026163 -0.00268322 -0.00401539 7.11162e-06 -7.29561e-06 -6.94129e-05 -0.00262209 -0.00267743 -0.00401539 2.01057e-05 -2.15679e-05 -6.63792e-05 -0.00263266 -0.00266686 -0.00401539 2.96229e-05 -3.48976e-05 -6.04445e-05 -0.00264619 -0.00265334 -0.00401539 3.40183e-05 -4.67021e-05 -5.1868e-05 -0.00266033 -0.00263919 -0.00401539 3.25316e-05 -5.64655e-05 -4.10246e-05 -0.00267265 -0.00262687 -0.00401539 2.54197e-05 -6.37611e-05 -2.83883e-05 -0.00268101 -0.00261851 -0.00401539 1.39127e-05 -6.82701e-05 -1.45112e-05 -0.00268397 -0.00261556 -0.00401539 3.18755e-17 -6.97953e-05 7.5125e-17 -0.00268101 -0.00261851 -0.00401539 -1.39127e-05 -6.82701e-05 1.45112e-05 -0.00267265 -0.00262687 -0.00401539 -2.54197e-05 -6.37611e-05 2.83883e-05 -0.00293444 -0.00296134 -0.0036345 2.85794e-06 -1.66028e-05 -0.000157965 -0.00293677 -0.00295901 -0.0036345 8.07979e-06 -4.90828e-05 -0.000151062 -0.00294102 -0.00295476 -0.0036345 1.19043e-05 -7.94178e-05 -0.000137556 -0.00294645 -0.00294933 -0.0036345 1.36709e-05 -0.000106282 -0.000118038 -0.00295214 -0.00294364 -0.0036345 1.30734e-05 -0.000128501 -9.33612e-05 -0.00295709 -0.00293869 -0.0036345 1.02152e-05 -0.000145103 -6.46043e-05 -0.00296045 -0.00293533 -0.0036345 5.5911e-06 -0.000155365 -3.30237e-05 -0.00296164 -0.00293414 -0.0036345 5.74627e-18 -0.000158835 2.09075e-16 -0.00296045 -0.00293533 -0.0036345 -5.5911e-06 -0.000155365 3.30237e-05 -0.00295709 -0.00293869 -0.0036345 -1.02152e-05 -0.000145103 6.46043e-05 -0.0028593 -0.00293466 -0.00377208 8.00917e-06 -2.72539e-05 -0.000259303 -0.00286581 -0.00292814 -0.00377208 2.26428e-05 -8.05704e-05 -0.00024797 -0.00287772 -0.00291624 -0.00377208 3.33612e-05 -0.000130366 -0.0002258 -0.00289295 -0.00290101 -0.00377208 3.83113e-05 -0.000174463 -0.000193761 -0.00290888 -0.00288507 -0.00377208 3.66369e-05 -0.000210936 -0.000153254 -0.00292276 -0.0028712 -0.00377208 2.86276e-05 -0.00023819 -0.000106049 -0.00293217 -0.00286179 -0.00377208 1.56684e-05 -0.000255034 -5.42091e-05 -0.0029355 -0.00285846 -0.00377208 1.04083e-17 -0.000260731 9.79712e-17 -0.00293217 -0.00286179 -0.00377208 -1.56684e-05 -0.000255034 5.42091e-05 -0.00292276 -0.0028712 -0.00377208 -2.86276e-05 -0.00023819 0.000106049 -0.0032676 -0.00329705 -0.00318291 3.12954e-06 -2.97879e-05 -0.000283413 -0.00327015 -0.0032945 -0.00318291 8.84774e-06 -8.80619e-05 -0.000271027 -0.0032748 -0.00328985 -0.00318291 1.30359e-05 -0.000142487 -0.000246795 -0.00328075 -0.0032839 -0.00318291 1.49703e-05 -0.000190685 -0.000211777 -0.00328698 -0.00327767 -0.00318291 1.43159e-05 -0.000230549 -0.000167504 -0.0032924 -0.00327225 -0.00318291 1.11862e-05 -0.000260337 -0.00011591 -0.00329608 -0.00326857 -0.00318291 6.12247e-06 -0.000278747 -5.92495e-05 -0.00329738 -0.00326727 -0.00318291 3.14419e-18 -0.000284975 -3.21845e-16 -0.00329608 -0.00326857 -0.00318291 -6.12247e-06 -0.000278747 5.92495e-05 -0.0032924 -0.00327225 -0.00318291 -1.11862e-05 -0.000260337 0.00011591 -0.00318538 -0.00326785 -0.00331943 8.76458e-06 -4.99444e-05 -0.00047519 -0.00319251 -0.00326072 -0.00331943 2.47784e-05 -0.000147651 -0.000454422 -0.00320554 -0.0032477 -0.00331943 3.65078e-05 -0.000238904 -0.000413793 -0.00322221 -0.00323102 -0.00331943 4.19247e-05 -0.000319715 -0.00035508 -0.00323964 -0.00321359 -0.00331943 4.00923e-05 -0.000386554 -0.000280848 -0.00325483 -0.00319841 -0.00331943 3.13276e-05 -0.000436499 -0.000194342 -0.00326513 -0.00318811 -0.00331943 1.71462e-05 -0.000467366 -9.93417e-05 -0.00326877 -0.00318446 -0.00331943 -5.31259e-18 -0.000477807 -2.37196e-16 -0.00326513 -0.00318811 -0.00331943 -1.71462e-05 -0.000467366 9.93417e-05 -0.00325483 -0.00319841 -0.00331943 -3.13276e-05 -0.000436499 0.000194342 -0.00372149 -0.0037471 -0.00250082 2.72141e-06 -4.38987e-05 -0.000417669 -0.00372371 -0.00374489 -0.00250082 7.69388e-06 -0.000129778 -0.000399415 -0.00372775 -0.00374084 -0.00250082 1.13358e-05 -0.000209985 -0.000363704 -0.00373293 -0.00373567 -0.00250082 1.30179e-05 -0.000281014 -0.000312098 -0.00373834 -0.00373025 -0.00250082 1.24489e-05 -0.000339762 -0.000246852 -0.00374306 -0.00372554 -0.00250082 9.7274e-06 -0.000383661 -0.000170817 -0.00374626 -0.00372234 -0.00250082 5.32398e-06 -0.000410792 -8.73165e-05 -0.00374739 -0.00372121 -0.00250082 1.0842e-17 -0.000419969 -4.68077e-16 -0.00374626 -0.00372234 -0.00250082 -5.32398e-06 -0.000410792 8.73165e-05 -0.00374306 -0.00372554 -0.00250082 -9.7274e-06 -0.000383661 0.000170817 -0.00364919 -0.00372154 -0.00261005 7.68986e-06 -7.49408e-05 -0.000713014 -0.00365544 -0.00371529 -0.00261005 2.17401e-05 -0.000221547 -0.000681852 -0.00366687 -0.00370386 -0.00261005 3.20312e-05 -0.000358471 -0.00062089 -0.0036815 -0.00368923 -0.00261005 3.67839e-05 -0.000479728 -0.000532792 -0.00369679 -0.00367393 -0.00261005 3.51763e-05 -0.000580018 -0.000421408 -0.00371011 -0.00366061 -0.00261005 2.74863e-05 -0.000654959 -0.000291606 -0.00371915 -0.00365157 -0.00261005 1.50437e-05 -0.000701275 -0.000149061 -0.00372235 -0.00364838 -0.00261005 2.08167e-17 -0.000716942 -2.63949e-16 -0.00371915 -0.00365157 -0.00261005 -1.50437e-05 -0.000701275 0.000149061 -0.00371011 -0.00366061 -0.00261005 -2.74863e-05 -0.000654959 0.000291606 -0.0024825 -0.00248139 -0.00315191 -1.71552e-06 0.000205386 -0.000149222 -0.00248176 -0.00248214 -0.00315191 -1.79388e-06 0.000169873 -0.000188663 -0.00248104 -0.00248285 -0.00315191 -1.56181e-06 0.000126935 -0.000219859 -0.00248049 -0.00248341 -0.00315191 -1.06049e-06 7.84504e-05 -0.000241446 -0.00248018 -0.00248371 -0.00315191 -3.74857e-07 2.65367e-05 -0.00025248 -0.00248018 -0.00248371 -0.00315191 3.74857e-07 -2.65367e-05 -0.00025248 -0.00248049 -0.00248341 -0.00315191 1.06049e-06 -7.84504e-05 -0.000241446 -0.00248104 -0.00248285 -0.00315191 1.56181e-06 -0.000126935 -0.000219859 -0.00248176 -0.00248214 -0.00315191 1.79388e-06 -0.000169873 -0.000188663 -0.0024825 -0.00248139 -0.00315191 1.71552e-06 -0.000205386 -0.000149222 -0.00247607 -0.00247256 -0.00315766 -5.41144e-06 0.000343876 -0.000249841 -0.00247372 -0.00247491 -0.00315766 -5.65872e-06 0.000284417 -0.000315877 -0.00247147 -0.00247716 -0.00315766 -4.92746e-06 0.000212527 -0.000368108 -0.00246971 -0.00247892 -0.00315766 -3.34458e-06 0.000131349 -0.000404251 -0.00246875 -0.00247988 -0.00315766 -1.18288e-06 4.44303e-05 -0.000422726 -0.00246875 -0.00247988 -0.00315766 1.18288e-06 -4.44303e-05 -0.000422726 -0.00246971 -0.00247892 -0.00315766 3.34458e-06 -0.000131349 -0.000404251 -0.00247147 -0.00247716 -0.00315766 4.92746e-06 -0.000212527 -0.000368108 -0.00247372 -0.00247491 -0.00315766 5.65872e-06 -0.000284417 -0.000315877 -0.00247607 -0.00247256 -0.00315766 5.41144e-06 -0.000343876 -0.000249841 -0.00238828 -0.00238605 -0.00349942 -3.43755e-06 0.000178862 -0.000129951 -0.00238679 -0.00238754 -0.00349942 -3.59461e-06 0.000147936 -0.000164299 -0.00238536 -0.00238897 -0.00349942 -3.12983e-06 0.000110543 -0.000191466 -0.00238424 -0.00239009 -0.00349942 -2.12471e-06 6.83193e-05 -0.000210265 -0.00238363 -0.0023907 -0.00349942 -7.51445e-07 2.31097e-05 -0.000219875 -0.00238363 -0.0023907 -0.00349942 7.51445e-07 -2.31097e-05 -0.000219875 -0.00238424 -0.00239009 -0.00349942 2.12471e-06 -6.83193e-05 -0.000210265 -0.00238536 -0.00238897 -0.00349942 3.12983e-06 -0.000110543 -0.000191466 -0.00238679 -0.00238754 -0.00349942 3.59461e-06 -0.000147936 -0.000164299 -0.00238828 -0.00238605 -0.00349942 3.43755e-06 -0.000178862 -0.000129951 -0.00237724 -0.00237115 -0.00351342 -9.37161e-06 0.00029549 -0.000214686 -0.00237316 -0.00237522 -0.00351342 -9.79988e-06 0.000244397 -0.00027143 -0.00236926 -0.00237912 -0.00351342 -8.5336e-06 0.000182623 -0.000316312 -0.00236622 -0.00238216 -0.00351342 -5.79211e-06 0.000112867 -0.000347369 -0.00236455 -0.00238383 -0.00351342 -2.04864e-06 3.81785e-05 -0.000363244 -0.00236455 -0.00238383 -0.00351342 2.04864e-06 -3.81785e-05 -0.000363244 -0.00236622 -0.00238216 -0.00351342 5.79211e-06 -0.000112867 -0.000347369 -0.00236926 -0.00237912 -0.00351342 8.5336e-06 -0.000182623 -0.000316312 -0.00237316 -0.00237522 -0.00351342 9.79988e-06 -0.000244397 -0.00027143 -0.00237724 -0.00237115 -0.00351342 9.37161e-06 -0.00029549 -0.000214686 -0.00236583 -0.00236285 -0.00375827 -4.58412e-06 0.000139004 -0.000100992 -0.00236384 -0.00236485 -0.00375827 -4.79351e-06 0.000114969 -0.000127686 -0.00236193 -0.00236675 -0.00375827 -4.17382e-06 8.59091e-05 -0.000148799 -0.00236044 -0.00236824 -0.00375827 -2.83325e-06 5.30947e-05 -0.000163409 -0.00235963 -0.00236906 -0.00375827 -1.00206e-06 1.79599e-05 -0.000170877 -0.00235963 -0.00236906 -0.00375827 1.00206e-06 -1.79599e-05 -0.000170877 -0.00236044 -0.00236824 -0.00375827 2.83325e-06 -5.30947e-05 -0.000163409 -0.00236193 -0.00236675 -0.00375827 4.17382e-06 -8.59091e-05 -0.000148799 -0.00236384 -0.00236485 -0.00375827 4.79351e-06 -0.000114969 -0.000127686 -0.00236583 -0.00236285 -0.00375827 4.58412e-06 -0.000139004 -0.000100992 -0.00235252 -0.00234514 -0.00377851 -1.13615e-05 0.000234248 -0.000170191 -0.00234758 -0.00235008 -0.00377851 -1.18807e-05 0.000193745 -0.000215175 -0.00234286 -0.00235481 -0.00377851 -1.03455e-05 0.000144773 -0.000250755 -0.00233917 -0.0023585 -0.00377851 -7.02184e-06 8.94749e-05 -0.000275375 -0.00233715 -0.00236052 -0.00377851 -2.48365e-06 3.02659e-05 -0.000287961 -0.00233715 -0.00236052 -0.00377851 2.48365e-06 -3.02659e-05 -0.000287961 -0.00233917 -0.0023585 -0.00377851 7.02184e-06 -8.94749e-05 -0.000275375 -0.00234286 -0.00235481 -0.00377851 1.03455e-05 -0.000144773 -0.000250755 -0.00234758 -0.00235008 -0.00377851 1.18807e-05 -0.000193745 -0.000215175 -0.00235252 -0.00234514 -0.00377851 1.13615e-05 -0.000234248 -0.000170191 -0.00241224 -0.00240831 -0.00392015 -6.04959e-06 9.77763e-05 -7.10386e-05 -0.00240961 -0.00241094 -0.00392015 -6.32598e-06 8.08699e-05 -8.98151e-05 -0.0024071 -0.00241346 -0.00392015 -5.50839e-06 6.0429e-05 -0.000104666 -0.00240513 -0.00241542 -0.00392015 -3.73898e-06 3.73472e-05 -0.000114943 -0.00240405 -0.0024165 -0.00392015 -1.3223e-06 1.26332e-05 -0.000120196 -0.00240405 -0.0024165 -0.00392015 1.3223e-06 -1.26332e-05 -0.000120196 -0.00240513 -0.00241542 -0.00392015 3.73898e-06 -3.73472e-05 -0.000114943 -0.0024071 -0.00241346 -0.00392015 5.50839e-06 -6.0429e-05 -0.000104666 -0.00240961 -0.00241094 -0.00392015 6.32598e-06 -8.08699e-05 -8.98151e-05 -0.00241224 -0.00240831 -0.00392015 6.04959e-06 -9.77763e-05 -7.10386e-05 -0.00239385 -0.00238367 -0.00397321 -1.56576e-05 0.000171915 -0.000124904 -0.00238704 -0.00239048 -0.00397321 -1.63732e-05 0.000142189 -0.000157917 -0.00238053 -0.00239699 -0.00397321 -1.42576e-05 0.000106249 -0.000184029 -0.00237544 -0.00240208 -0.00397321 -9.67698e-06 6.56657e-05 -0.000202098 -0.00237266 -0.00240487 -0.00397321 -3.4228e-06 2.22122e-05 -0.000211335 -0.00237266 -0.00240487 -0.00397321 3.4228e-06 -2.22122e-05 -0.000211335 -0.00237544 -0.00240208 -0.00397321 9.67698e-06 -6.56657e-05 -0.000202098 -0.00238053 -0.00239699 -0.00397321 1.42576e-05 -0.000106249 -0.000184029 -0.00238704 -0.00239048 -0.00397321 1.63732e-05 -0.000142189 -0.000157917 -0.00239385 -0.00238367 -0.00397321 1.56576e-05 -0.000171915 -0.000124904 -0.00251929 -0.00251323 -0.00397978 -9.32708e-06 3.95891e-05 -2.87631e-05 -0.00251524 -0.00251729 -0.00397978 -9.75325e-06 3.27438e-05 -3.63657e-05 -0.00251136 -0.00252117 -0.00397978 -8.49294e-06 2.44674e-05 -4.23788e-05 -0.00250833 -0.0025242 -0.00397978 -5.76459e-06 1.51217e-05 -4.65398e-05 -0.00250667 -0.00252586 -0.00397978 -2.03878e-06 5.11513e-06 -4.86667e-05 -0.00250667 -0.00252586 -0.00397978 2.03878e-06 -5.11513e-06 -4.86667e-05 -0.00250833 -0.0025242 -0.00397978 5.76459e-06 -1.51217e-05 -4.65398e-05 -0.00251136 -0.00252117 -0.00397978 8.49294e-06 -2.44674e-05 -4.23788e-05 -0.00251524 -0.00251729 -0.00397978 9.75325e-06 -3.27438e-05 -3.63657e-05 -0.00251929 -0.00251323 -0.00397978 9.32708e-06 -3.95891e-05 -2.87631e-05 -0.00248993 -0.00247372 -0.00405882 -2.49457e-05 7.91031e-05 -5.74717e-05 -0.00247908 -0.00248456 -0.00405882 -2.60857e-05 6.54254e-05 -7.26623e-05 -0.0024