DF-ISE text

# filename: mesh_led_tri_msh.grd
# written by the library Delaunay
Info {
version     =  1
type        = grid
dimension   =  2
nb_vertices =  11514
nb_edges    =  34021
nb_faces    =  0
nb_elements =  22869
nb_regions  =  21
regions     = [ "qwbarrier_down2" "AlInN_OX" "region_6" "region_10_lump_1" "qwbarrier_down3" "region_10_lump_2" "AlInN" "region_8" "region_0" "region_1" "qwbarrier1_up" "region_2" "qwbarrier_up2" "region_3" "qwbarrier_up3" "region_4" "qwbarrier_down1" "thermode" "strain" "ncontact" "pcontact" ]
materials     = [ GaN Oxide InGaN GaN GaN GaN AlInN InGaN Ambient GaN GaN AlGaN GaN GaN GaN InGaN GaN Contact Contact Contact Contact ]
 }
Data {
CoordSystem {
translate = [  0  0  0 ]
transform = [  1  0  0  0  1  0  0  0  1 ]
 }
Vertices (  11514) {
 0 -2
 0 -1.5
 0.328125 -1.5
 0.328125 -2
 0.65625 -1.5
 0.65625 -2
 0 -1
 0.328125 -1
 0.65625 -1
 0.984375 -1.5
 0.984375 -2
 1.3125 -1.5
 1.3125 -2
 0.984375 -1
 1.3125 -1
 0 -0.5
 0.328125 -0.5
 0.65625 -0.5
 0 0
 0.328125 0
 0.65625 0
 0.984375 -0.5
 1.3125 -0.5
 0.984375 0
 1.3125 0
 1.640625 -1.5
 1.640625 -2
 1.96875 -1.5
 1.96875 -2
 1.640625 -1
 1.96875 -1
 2.296875 -1.5
 2.296875 -2
 2.625 -1.5
 2.625 -2
 2.296875 -1
 2.625 -1
 1.640625 -0.5
 1.96875 -0.5
 1.640625 0
 1.96875 0
 2.296875 -0.5
 2.625 -0.5
 2.296875 0
 2.5 0
 2.625 0
 2.953125 -1.5
 2.953125 -2
 3.28125 -1.5
 3.28125 -2
 2.953125 -1
 3.28125 -1
 3.609375 -1.5
 3.609375 -2
 3.9375 -1.5
 3.9375 -2
 3.609375 -1
 3.9375 -1
 2.953125 -0.5
 3.28125 -0.5
 2.953125 0
 3.28125 0
 3.609375 -0.5
 3.9375 -0.5
 3.609375 0
 3.9375 0
 4.265625 -1.5
 4.265625 -2
 4.59375 -1.5
 4.59375 -2
 4.265625 -1
 4.59375 -1
 4.921875 -1.5
 4.921875 -2
 5.25 -1.5
 5.25 -2
 4.921875 -1
 5.25 -1
 4.265625 -0.5
 4.59375 -0.5
 4.265625 0
 4.59375 0
 4.921875 -0.5
 5.25 -0.5
 4.921875 0
 5.25 0
 5.71875 -1.5
 5.71875 -2
 6.1875 -1.5
 6.1875 -2
 5.71875 -1
 6.1875 -1
 6.65625 -1.5
 6.65625 -2
 7.125 -1.5
 7.125 -2
 6.65625 -1
 7.125 -1
 5.71875 -0.5
 6.1875 -0.5
 5.71875 0
 6.1875 0
 6.65625 -0.5
 7.125 -0.5
 6.65625 0
 7.125 0
 7.59375 -1.5
 7.59375 -2
 8.0625 -1.5
 8.0625 -2
 7.59375 -1
 8.0625 -1
 8.53125 -1.5
 8.53125 -2
 9 -1.5
 9 -2
 8.53125 -1
 9 -1
 7.59375 -0.5
 8.0625 -0.5
 7.59375 0
 8.0625 0
 8.53125 -0.5
 9 -0.5
 8.53125 0
 9 0
 9.5 -1.5
 9.5 -2
 10 -1.5
 10 -2
 9.5 -1
 10 -1
 9.5 -0.5
 10 -0.5
 9.5 0
 10 0
 0 0.0053125
 0.328125 0.0053125
 0 0.010625
 0.328125 0.010625
 0 0.0159375
 0.328125 0.0159375
 0 0.02125
 0.328125 0.02125
 0 0.0265625
 0.328125 0.0265625
 0 0.031875
 0.328125 0.031875
 0 0.0371875
 0.328125 0.0371875
 0 0.0425
 0.328125 0.0425
 0 0.04781250000000001
 0.328125 0.04781250000000001
 0 0.05312500000000001
 0.328125 0.05312500000000001
 0 0.0584375
 0.328125 0.0584375
 0 0.06375
 0.328125 0.06375
 0 0.0690625
 0.328125 0.0690625
 0 0.074375
 0.328125 0.074375
 0 0.07968749999999999
 0.328125 0.07968749999999999
 0 0.08500000000000001
 0.328125 0.08500000000000001
 0 0.09031250000000002
 0.328125 0.09031250000000002
 0 0.09562500000000002
 0.328125 0.09562500000000002
 0 0.1009375
 0.328125 0.1009375
 0 0.10625
 0.328125 0.10625
 0 0.1115625
 0.328125 0.1115625
 0 0.116875
 0.328125 0.116875
 0 0.1221875
 0.328125 0.1221875
 0 0.1275
 0.328125 0.1275
 0 0.1328125
 0.328125 0.1328125
 0 0.138125
 0.328125 0.138125
 0 0.1434375
 0.328125 0.1434375
 0 0.14875
 0.328125 0.14875
 0 0.1540625
 0.328125 0.1540625
 0 0.159375
 0.328125 0.159375
 0 0.1646875
 0.328125 0.1646875
 0 0.16734375
 0.328125 0.16734375
 0 0.17
 0.328125 0.17
 0.65625 0.0053125
 0.65625 0.010625
 0.65625 0.0159375
 0.65625 0.02125
 0.65625 0.0265625
 0.65625 0.031875
 0.65625 0.0371875
 0.65625 0.0425
 0.65625 0.04781250000000001
 0.65625 0.05312500000000001
 0.65625 0.0584375
 0.65625 0.06375
 0.65625 0.0690625
 0.65625 0.074375
 0.65625 0.07968749999999999
 0.65625 0.08500000000000001
 0.65625 0.09031250000000002
 0.65625 0.09562500000000002
 0.65625 0.1009375
 0.65625 0.10625
 0.65625 0.1115625
 0.65625 0.116875
 0.65625 0.1221875
 0.65625 0.1275
 0.65625 0.1328125
 0.65625 0.138125
 0.65625 0.1434375
 0.65625 0.14875
 0.65625 0.1540625
 0.65625 0.159375
 0.65625 0.1646875
 0.65625 0.16734375
 0.65625 0.17
 0.984375 0.0053125
 0.984375 0.010625
 0.984375 0.0159375
 0.984375 0.02125
 0.984375 0.0265625
 0.984375 0.031875
 0.984375 0.0371875
 0.984375 0.0425
 0.984375 0.04781250000000001
 0.984375 0.05312500000000001
 0.984375 0.0584375
 0.984375 0.06375
 0.984375 0.0690625
 0.984375 0.074375
 0.984375 0.07968749999999999
 0.984375 0.08500000000000001
 0.984375 0.09031250000000002
 0.984375 0.09562500000000002
 0.984375 0.1009375
 0.984375 0.10625
 0.984375 0.1115625
 0.984375 0.116875
 0.984375 0.1221875
 0.984375 0.1275
 0.984375 0.1328125
 0.984375 0.138125
 0.984375 0.1434375
 0.984375 0.14875
 0.984375 0.1540625
 0.984375 0.159375
 0.984375 0.1646875
 0.984375 0.16734375
 0.984375 0.17
 1.3125 0.0053125
 1.3125 0.010625
 1.3125 0.0159375
 1.3125 0.02125
 1.3125 0.0265625
 1.3125 0.031875
 1.3125 0.0371875
 1.3125 0.0425
 1.3125 0.04781250000000001
 1.3125 0.05312500000000001
 1.3125 0.0584375
 1.3125 0.06375
 1.3125 0.0690625
 1.3125 0.074375
 1.3125 0.07968749999999999
 1.3125 0.08500000000000001
 1.3125 0.09031250000000002
 1.3125 0.09562500000000002
 1.3125 0.1009375
 1.3125 0.10625
 1.3125 0.1115625
 1.3125 0.116875
 1.3125 0.1221875
 1.3125 0.1275
 1.3125 0.1328125
 1.3125 0.138125
 1.3125 0.1434375
 1.3125 0.14875
 1.3125 0.1540625
 1.3125 0.159375
 1.3125 0.1646875
 1.3125 0.16734375
 1.3125 0.17
 1.640625 0.0053125
 1.640625 0.010625
 1.640625 0.0159375
 1.640625 0.02125
 1.640625 0.0265625
 1.640625 0.031875
 1.640625 0.0371875
 1.640625 0.0425
 1.640625 0.04781250000000001
 1.640625 0.05312500000000001
 1.640625 0.0584375
 1.640625 0.06375
 1.640625 0.0690625
 1.640625 0.074375
 1.640625 0.07968749999999999
 1.640625 0.08500000000000001
 1.640625 0.09031250000000002
 1.640625 0.09562500000000002
 1.640625 0.1009375
 1.640625 0.10625
 1.640625 0.1115625
 1.640625 0.116875
 1.640625 0.1221875
 1.640625 0.1275
 1.640625 0.1328125
 1.640625 0.138125
 1.640625 0.1434375
 1.640625 0.14875
 1.640625 0.1540625
 1.640625 0.159375
 1.640625 0.1646875
 1.640625 0.16734375
 1.640625 0.17
 1.96875 0.0053125
 1.96875 0.010625
 1.96875 0.0159375
 1.96875 0.02125
 1.96875 0.0265625
 1.96875 0.031875
 1.96875 0.0371875
 1.96875 0.0425
 1.96875 0.04781250000000001
 1.96875 0.05312500000000001
 1.96875 0.0584375
 1.96875 0.06375
 1.96875 0.0690625
 1.96875 0.074375
 1.96875 0.07968749999999999
 1.96875 0.08500000000000001
 1.96875 0.09031250000000002
 1.96875 0.09562500000000002
 1.96875 0.1009375
 1.96875 0.10625
 1.96875 0.1115625
 1.96875 0.116875
 1.96875 0.1221875
 1.96875 0.1275
 1.96875 0.1328125
 1.96875 0.138125
 1.96875 0.1434375
 1.96875 0.14875
 1.96875 0.1540625
 1.96875 0.159375
 1.96875 0.1646875
 1.96875 0.16734375
 1.96875 0.17
 2.296875 0.0053125
 2.296875 0.010625
 2.296875 0.0159375
 2.296875 0.02125
 2.296875 0.0265625
 2.296875 0.031875
 2.296875 0.0371875
 2.296875 0.0425
 2.296875 0.04781250000000001
 2.296875 0.05312500000000001
 2.296875 0.0584375
 2.296875 0.06375
 2.296875 0.0690625
 2.296875 0.074375
 2.296875 0.07968749999999999
 2.296875 0.08500000000000001
 2.296875 0.09031250000000002
 2.296875 0.09562500000000002
 2.296875 0.1009375
 2.296875 0.10625
 2.296875 0.1115625
 2.296875 0.116875
 2.296875 0.1221875
 2.296875 0.1275
 2.296875 0.1328125
 2.296875 0.138125
 2.296875 0.1434375
 2.296875 0.14875
 2.296875 0.1540625
 2.296875 0.159375
 2.296875 0.1646875
 2.296875 0.16734375
 2.296875 0.17
 2.5 0.0053125
 2.625 0.0053125
 2.5 0.010625
 2.625 0.010625
 2.5 0.0159375
 2.625 0.0159375
 2.5 0.02125
 2.625 0.02125
 2.5 0.0265625
 2.625 0.0265625
 2.5 0.031875
 2.625 0.031875
 2.5 0.0371875
 2.625 0.0371875
 2.5 0.0425
 2.625 0.0425
 2.5 0.04781250000000001
 2.625 0.04781250000000001
 2.5 0.05312500000000001
 2.625 0.05312500000000001
 2.5 0.0584375
 2.625 0.0584375
 2.5 0.06375
 2.625 0.06375
 2.5 0.0690625
 2.625 0.0690625
 2.5 0.074375
 2.625 0.074375
 2.5 0.07968749999999999
 2.625 0.07968749999999999
 2.5 0.08500000000000001
 2.625 0.08500000000000001
 2.5 0.09031250000000002
 2.625 0.09031250000000002
 2.5 0.09562500000000002
 2.625 0.09562500000000002
 2.5 0.1009375
 2.625 0.1009375
 2.5 0.10625
 2.625 0.10625
 2.5 0.1115625
 2.625 0.1115625
 2.5 0.116875
 2.625 0.116875
 2.5 0.1221875
 2.625 0.1221875
 2.5 0.1275
 2.625 0.1275
 2.5 0.1328125
 2.625 0.1328125
 2.5 0.138125
 2.625 0.138125
 2.5 0.1434375
 2.625 0.1434375
 2.5 0.14875
 2.625 0.14875
 2.5 0.1540625
 2.625 0.1540625
 2.5 0.159375
 2.625 0.159375
 2.5 0.1646875
 2.625 0.1646875
 2.5 0.16734375
 2.625 0.16734375
 2.5 0.17
 2.625 0.17
 2.953125 0.0053125
 2.953125 0.010625
 2.953125 0.0159375
 2.953125 0.02125
 2.953125 0.0265625
 2.953125 0.031875
 2.953125 0.0371875
 2.953125 0.0425
 2.953125 0.04781250000000001
 2.953125 0.05312500000000001
 2.953125 0.0584375
 2.953125 0.06375
 2.953125 0.0690625
 2.953125 0.074375
 2.953125 0.07968749999999999
 2.953125 0.08500000000000001
 2.953125 0.09031250000000002
 2.953125 0.09562500000000002
 2.953125 0.1009375
 2.953125 0.10625
 2.953125 0.1115625
 2.953125 0.116875
 2.953125 0.1221875
 2.953125 0.1275
 2.953125 0.1328125
 2.953125 0.138125
 2.953125 0.1434375
 2.953125 0.14875
 2.953125 0.1540625
 2.953125 0.159375
 2.953125 0.1646875
 2.953125 0.16734375
 2.953125 0.17
 3.28125 0.0053125
 3.28125 0.010625
 3.28125 0.0159375
 3.28125 0.02125
 3.28125 0.0265625
 3.28125 0.031875
 3.28125 0.0371875
 3.28125 0.0425
 3.28125 0.04781250000000001
 3.28125 0.05312500000000001
 3.28125 0.0584375
 3.28125 0.06375
 3.28125 0.0690625
 3.28125 0.074375
 3.28125 0.07968749999999999
 3.28125 0.08500000000000001
 3.28125 0.09031250000000002
 3.28125 0.09562500000000002
 3.28125 0.1009375
 3.28125 0.10625
 3.28125 0.1115625
 3.28125 0.116875
 3.28125 0.1221875
 3.28125 0.1275
 3.28125 0.1328125
 3.28125 0.138125
 3.28125 0.1434375
 3.28125 0.14875
 3.28125 0.1540625
 3.28125 0.159375
 3.28125 0.1646875
 3.28125 0.16734375
 3.28125 0.17
 3.609375 0.0053125
 3.609375 0.010625
 3.609375 0.0159375
 3.609375 0.02125
 3.609375 0.0265625
 3.609375 0.031875
 3.609375 0.0371875
 3.609375 0.0425
 3.609375 0.04781250000000001
 3.609375 0.05312500000000001
 3.609375 0.0584375
 3.609375 0.06375
 3.609375 0.0690625
 3.609375 0.074375
 3.609375 0.07968749999999999
 3.609375 0.08500000000000001
 3.609375 0.09031250000000002
 3.609375 0.09562500000000002
 3.609375 0.1009375
 3.609375 0.10625
 3.609375 0.1115625
 3.609375 0.116875
 3.609375 0.1221875
 3.609375 0.1275
 3.609375 0.1328125
 3.609375 0.138125
 3.609375 0.1434375
 3.609375 0.14875
 3.609375 0.1540625
 3.609375 0.159375
 3.609375 0.1646875
 3.609375 0.16734375
 3.609375 0.17
 3.9375 0.0053125
 3.9375 0.010625
 3.9375 0.0159375
 3.9375 0.02125
 3.9375 0.0265625
 3.9375 0.031875
 3.9375 0.0371875
 3.9375 0.0425
 3.9375 0.04781250000000001
 3.9375 0.05312500000000001
 3.9375 0.0584375
 3.9375 0.06375
 3.9375 0.0690625
 3.9375 0.074375
 3.9375 0.07968749999999999
 3.9375 0.08500000000000001
 3.9375 0.09031250000000002
 3.9375 0.09562500000000002
 3.9375 0.1009375
 3.9375 0.10625
 3.9375 0.1115625
 3.9375 0.116875
 3.9375 0.1221875
 3.9375 0.1275
 3.9375 0.1328125
 3.9375 0.138125
 3.9375 0.1434375
 3.9375 0.14875
 3.9375 0.1540625
 3.9375 0.159375
 3.9375 0.1646875
 3.9375 0.16734375
 3.9375 0.17
 4.265625 0.0053125
 4.265625 0.010625
 4.265625 0.0159375
 4.265625 0.02125
 4.265625 0.0265625
 4.265625 0.031875
 4.265625 0.0371875
 4.265625 0.0425
 4.265625 0.04781250000000001
 4.265625 0.05312500000000001
 4.265625 0.0584375
 4.265625 0.06375
 4.265625 0.0690625
 4.265625 0.074375
 4.265625 0.07968749999999999
 4.265625 0.08500000000000001
 4.265625 0.09031250000000002
 4.265625 0.09562500000000002
 4.265625 0.1009375
 4.265625 0.10625
 4.265625 0.1115625
 4.265625 0.116875
 4.265625 0.1221875
 4.265625 0.1275
 4.265625 0.1328125
 4.265625 0.138125
 4.265625 0.1434375
 4.265625 0.14875
 4.265625 0.1540625
 4.265625 0.159375
 4.265625 0.1646875
 4.265625 0.16734375
 4.265625 0.17
 4.59375 0.0053125
 4.59375 0.010625
 4.59375 0.0159375
 4.59375 0.02125
 4.59375 0.0265625
 4.59375 0.031875
 4.59375 0.0371875
 4.59375 0.0425
 4.59375 0.04781250000000001
 4.59375 0.05312500000000001
 4.59375 0.0584375
 4.59375 0.06375
 4.59375 0.0690625
 4.59375 0.074375
 4.59375 0.07968749999999999
 4.59375 0.08500000000000001
 4.59375 0.09031250000000002
 4.59375 0.09562500000000002
 4.59375 0.1009375
 4.59375 0.10625
 4.59375 0.1115625
 4.59375 0.116875
 4.59375 0.1221875
 4.59375 0.1275
 4.59375 0.1328125
 4.59375 0.138125
 4.59375 0.1434375
 4.59375 0.14875
 4.59375 0.1540625
 4.59375 0.159375
 4.59375 0.1646875
 4.59375 0.16734375
 4.59375 0.17
 4.921875 0.0053125
 4.921875 0.010625
 4.921875 0.0159375
 4.921875 0.02125
 4.921875 0.0265625
 4.921875 0.031875
 4.921875 0.0371875
 4.921875 0.0425
 4.921875 0.04781250000000001
 4.921875 0.05312500000000001
 4.921875 0.0584375
 4.921875 0.06375
 4.921875 0.0690625
 4.921875 0.074375
 4.921875 0.07968749999999999
 4.921875 0.08500000000000001
 4.921875 0.09031250000000002
 4.921875 0.09562500000000002
 4.921875 0.1009375
 4.921875 0.10625
 4.921875 0.1115625
 4.921875 0.116875
 4.921875 0.1221875
 4.921875 0.1275
 4.921875 0.1328125
 4.921875 0.138125
 4.921875 0.1434375
 4.921875 0.14875
 4.921875 0.1540625
 4.921875 0.159375
 4.921875 0.1646875
 4.921875 0.16734375
 4.921875 0.17
 5.25 0.0053125
 5.25 0.010625
 5.25 0.0159375
 5.25 0.02125
 5.25 0.0265625
 5.25 0.031875
 5.25 0.0371875
 5.25 0.0425
 5.25 0.04781250000000001
 5.25 0.05312500000000001
 5.25 0.0584375
 5.25 0.06375
 5.25 0.0690625
 5.25 0.074375
 5.25 0.07968749999999999
 5.25 0.08500000000000001
 5.25 0.09031250000000002
 5.25 0.09562500000000002
 5.25 0.1009375
 5.25 0.10625
 5.25 0.1115625
 5.25 0.116875
 5.25 0.1221875
 5.25 0.1275
 5.25 0.1328125
 5.25 0.138125
 5.25 0.1434375
 5.25 0.14875
 5.25 0.1540625
 5.25 0.159375
 5.25 0.1646875
 5.25 0.16734375
 5.25 0.17
 5.71875 0.0053125
 5.71875 0.010625
 5.71875 0.0159375
 5.71875 0.02125
 5.71875 0.0265625
 5.71875 0.031875
 5.71875 0.0371875
 5.71875 0.0425
 5.71875 0.04781250000000001
 5.71875 0.05312500000000001
 5.71875 0.0584375
 5.71875 0.06375
 5.71875 0.0690625
 5.71875 0.074375
 5.71875 0.07968749999999999
 5.71875 0.08500000000000001
 5.71875 0.09031250000000002
 5.71875 0.09562500000000002
 5.71875 0.1009375
 5.71875 0.10625
 5.71875 0.1115625
 5.71875 0.116875
 5.71875 0.1221875
 5.71875 0.1275
 5.71875 0.1328125
 5.71875 0.138125
 5.71875 0.1434375
 5.71875 0.14875
 5.71875 0.1540625
 5.71875 0.159375
 5.71875 0.1646875
 5.71875 0.16734375
 5.71875 0.17
 6.1875 0.0053125
 6.1875 0.010625
 6.1875 0.0159375
 6.1875 0.02125
 6.1875 0.0265625
 6.1875 0.031875
 6.1875 0.0371875
 6.1875 0.0425
 6.1875 0.04781250000000001
 6.1875 0.05312500000000001
 6.1875 0.0584375
 6.1875 0.06375
 6.1875 0.0690625
 6.1875 0.074375
 6.1875 0.07968749999999999
 6.1875 0.08500000000000001
 6.1875 0.09031250000000002
 6.1875 0.09562500000000002
 6.1875 0.1009375
 6.1875 0.10625
 6.1875 0.1115625
 6.1875 0.116875
 6.1875 0.1221875
 6.1875 0.1275
 6.1875 0.1328125
 6.1875 0.138125
 6.1875 0.1434375
 6.1875 0.14875
 6.1875 0.1540625
 6.1875 0.159375
 6.1875 0.1646875
 6.1875 0.16734375
 6.1875 0.17
 6.65625 0.0053125
 6.65625 0.010625
 6.65625 0.0159375
 6.65625 0.02125
 6.65625 0.0265625
 6.65625 0.031875
 6.65625 0.0371875
 6.65625 0.0425
 6.65625 0.04781250000000001
 6.65625 0.05312500000000001
 6.65625 0.0584375
 6.65625 0.06375
 6.65625 0.0690625
 6.65625 0.074375
 6.65625 0.07968749999999999
 6.65625 0.08500000000000001
 6.65625 0.09031250000000002
 6.65625 0.09562500000000002
 6.65625 0.1009375
 6.65625 0.10625
 6.65625 0.1115625
 6.65625 0.116875
 6.65625 0.1221875
 6.65625 0.1275
 6.65625 0.1328125
 6.65625 0.138125
 6.65625 0.1434375
 6.65625 0.14875
 6.65625 0.1540625
 6.65625 0.159375
 6.65625 0.1646875
 6.65625 0.16734375
 6.65625 0.17
 7.125 0.0053125
 7.125 0.010625
 7.125 0.0159375
 7.125 0.02125
 7.125 0.0265625
 7.125 0.031875
 7.125 0.0371875
 7.125 0.0425
 7.125 0.04781250000000001
 7.125 0.05312500000000001
 7.125 0.0584375
 7.125 0.06375
 7.125 0.0690625
 7.125 0.074375
 7.125 0.07968749999999999
 7.125 0.08500000000000001
 7.125 0.09031250000000002
 7.125 0.09562500000000002
 7.125 0.1009375
 7.125 0.10625
 7.125 0.1115625
 7.125 0.116875
 7.125 0.1221875
 7.125 0.1275
 7.125 0.1328125
 7.125 0.138125
 7.125 0.1434375
 7.125 0.14875
 7.125 0.1540625
 7.125 0.159375
 7.125 0.1646875
 7.125 0.16734375
 7.125 0.17
 7.59375 0.0053125
 7.59375 0.010625
 7.59375 0.0159375
 7.59375 0.02125
 7.59375 0.0265625
 7.59375 0.031875
 7.59375 0.0371875
 7.59375 0.0425
 7.59375 0.04781250000000001
 7.59375 0.05312500000000001
 7.59375 0.0584375
 7.59375 0.06375
 7.59375 0.0690625
 7.59375 0.074375
 7.59375 0.07968749999999999
 7.59375 0.08500000000000001
 7.59375 0.09031250000000002
 7.59375 0.09562500000000002
 7.59375 0.1009375
 7.59375 0.10625
 7.59375 0.1115625
 7.59375 0.116875
 7.59375 0.1221875
 7.59375 0.1275
 7.59375 0.1328125
 7.59375 0.138125
 7.59375 0.1434375
 7.59375 0.14875
 7.59375 0.1540625
 7.59375 0.159375
 7.59375 0.1646875
 7.59375 0.16734375
 7.59375 0.17
 8.0625 0.0053125
 8.0625 0.010625
 8.0625 0.0159375
 8.0625 0.02125
 8.0625 0.0265625
 8.0625 0.031875
 8.0625 0.0371875
 8.0625 0.0425
 8.0625 0.04781250000000001
 8.0625 0.05312500000000001
 8.0625 0.0584375
 8.0625 0.06375
 8.0625 0.0690625
 8.0625 0.074375
 8.0625 0.07968749999999999
 8.0625 0.08500000000000001
 8.0625 0.09031250000000002
 8.0625 0.09562500000000002
 8.0625 0.1009375
 8.0625 0.10625
 8.0625 0.1115625
 8.0625 0.116875
 8.0625 0.1221875
 8.0625 0.1275
 8.0625 0.1328125
 8.0625 0.138125
 8.0625 0.1434375
 8.0625 0.14875
 8.0625 0.1540625
 8.0625 0.159375
 8.0625 0.1646875
 8.0625 0.16734375
 8.0625 0.17
 8.53125 0.0053125
 8.53125 0.010625
 8.53125 0.0159375
 8.53125 0.02125
 8.53125 0.0265625
 8.53125 0.031875
 8.53125 0.0371875
 8.53125 0.0425
 8.53125 0.04781250000000001
 8.53125 0.05312500000000001
 8.53125 0.0584375
 8.53125 0.06375
 8.53125 0.0690625
 8.53125 0.074375
 8.53125 0.07968749999999999
 8.53125 0.08500000000000001
 8.53125 0.09031250000000002
 8.53125 0.09562500000000002
 8.53125 0.1009375
 8.53125 0.10625
 8.53125 0.1115625
 8.53125 0.116875
 8.53125 0.1221875
 8.53125 0.1275
 8.53125 0.1328125
 8.53125 0.138125
 8.53125 0.1434375
 8.53125 0.14875
 8.53125 0.1540625
 8.53125 0.159375
 8.53125 0.1646875
 8.53125 0.16734375
 8.53125 0.17
 9 0.0053125
 9 0.010625
 9 0.0159375
 9 0.02125
 9 0.0265625
 9 0.031875
 9 0.0371875
 9 0.0425
 9 0.04781250000000001
 9 0.05312500000000001
 9 0.0584375
 9 0.06375
 9 0.0690625
 9 0.074375
 9 0.07968749999999999
 9 0.08500000000000001
 9 0.09031250000000002
 9 0.09562500000000002
 9 0.1009375
 9 0.10625
 9 0.1115625
 9 0.116875
 9 0.1221875
 9 0.1275
 9 0.1328125
 9 0.138125
 9 0.1434375
 9 0.14875
 9 0.1540625
 9 0.159375
 9 0.1646875
 9 0.16734375
 9 0.17
 9.5 0.0053125
 9.5 0.010625
 9.5 0.0159375
 9.5 0.02125
 9.5 0.0265625
 9.5 0.031875
 9.5 0.0371875
 9.5 0.0425
 9.5 0.04781250000000001
 9.5 0.05312500000000001
 9.5 0.0584375
 9.5 0.06375
 9.5 0.0690625
 9.5 0.074375
 9.5 0.07968749999999999
 9.5 0.08500000000000001
 9.5 0.09031250000000002
 9.5 0.09562500000000002
 9.5 0.1009375
 9.5 0.10625
 9.5 0.1115625
 9.5 0.116875
 9.5 0.1221875
 9.5 0.1275
 9.5 0.1328125
 9.5 0.138125
 9.5 0.1434375
 9.5 0.14875
 9.5 0.1540625
 9.5 0.159375
 9.5 0.1646875
 9.5 0.16734375
 9.5 0.17
 10 0.0053125
 10 0.010625
 10 0.0159375
 10 0.02125
 10 0.0265625
 10 0.031875
 10 0.0371875
 10 0.0425
 10 0.04781250000000001
 10 0.05312500000000001
 10 0.0584375
 10 0.06375
 10 0.0690625
 10 0.074375
 10 0.07968749999999999
 10 0.08500000000000001
 10 0.09031250000000002
 10 0.09562500000000002
 10 0.1009375
 10 0.10625
 10 0.1115625
 10 0.116875
 10 0.1221875
 10 0.1275
 10 0.1328125
 10 0.138125
 10 0.1434375
 10 0.14875
 10 0.1540625
 10 0.159375
 10 0.1646875
 10 0.16734375
 10 0.17
 10.3125 -1.5
 10.3125 -2
 10.625 -1.5
 10.625 -2
 10.3125 -1
 10.625 -1
 10.9375 -1.5
 10.9375 -2
 11.25 -1.5
 11.25 -2
 10.9375 -1
 11.25 -1
 10.3125 -0.5
 10.625 -0.5
 10.3125 0
 10.3125 0.08500000000000001
 10.3125 0.1275
 10.3125 0.14875
 10.3125 0.159375
 10.3125 0.1646875
 10.3125 0.16734375
 10.3125 0.17
 10.625 0
 10.625 0.08500000000000001
 10.625 0.1275
 10.625 0.14875
 10.625 0.159375
 10.625 0.1646875
 10.625 0.16734375
 10.625 0.17
 10.9375 -0.5
 11.25 -0.5
 10.9375 0
 10.9375 0.08500000000000001
 10.9375 0.1275
 10.9375 0.14875
 10.9375 0.159375
 10.9375 0.1646875
 10.9375 0.16734375
 10.9375 0.17
 11.25 0
 11.25 0.08500000000000001
 11.25 0.1275
 11.25 0.14875
 11.25 0.159375
 11.25 0.1646875
 11.25 0.16734375
 11.25 0.17
 11.5625 -1.5
 11.5625 -2
 11.875 -1.5
 11.875 -2
 11.5625 -1
 11.875 -1
 12.1875 -1.5
 12.1875 -2
 12.5 -1.5
 12.5 -2
 12.1875 -1
 12.5 -1
 11.5625 -0.5
 11.875 -0.5
 11.5625 0
 11.5625 0.17
 11.875 0
 11.875 0.17
 12.1875 -0.5
 12.5 -0.5
 12.1875 0
 12.1875 0.17
 12.5 0
 12.5 0.17
 12.8125 -1.5
 12.8125 -2
 13.125 -1.5
 13.125 -2
 12.8125 -1
 13.125 -1
 13.4375 -1.5
 13.4375 -2
 13.75 -1.5
 13.75 -2
 13.4375 -1
 13.75 -1
 12.8125 -0.5
 13.125 -0.5
 12.8125 0
 12.8125 0.17
 13.125 0
 13.125 0.17
 13.4375 -0.5
 13.75 -0.5
 13.4375 0
 13.4375 0.17
 13.75 0
 13.75 0.17
 14.0625 -1.5
 14.0625 -2
 14.375 -1.5
 14.375 -2
 14.0625 -1
 14.375 -1
 14.6875 -1.5
 14.6875 -2
 15 -1.5
 15 -2
 14.6875 -1
 15 -1
 14.0625 -0.5
 14.375 -0.5
 14.0625 0
 14.0625 0.17
 14.375 0
 14.375 0.17
 14.6875 -0.5
 15 -0.5
 14.6875 0
 14.6875 0.17
 15 0
 15 0.17
 15.3125 -1.5
 15.3125 -2
 15.625 -1.5
 15.625 -2
 15.3125 -1
 15.625 -1
 15.9375 -1.5
 15.9375 -2
 16.25 -1.5
 16.25 -2
 15.9375 -1
 16.25 -1
 15.3125 -0.5
 15.625 -0.5
 15.3125 0
 15.3125 0.17
 15.625 0
 15.625 0.17
 15.9375 -0.5
 16.25 -0.5
 15.9375 0
 15.9375 0.17
 16.25 0
 16.25 0.17
 16.5625 -1.5
 16.5625 -2
 16.875 -1.5
 16.875 -2
 16.5625 -1
 16.875 -1
 17.1875 -1.5
 17.1875 -2
 17.5 -1.5
 17.5 -2
 17.1875 -1
 17.5 -1
 16.5625 -0.5
 16.875 -0.5
 16.5625 0
 16.5625 0.17
 16.875 0
 16.625 0.17
 16.875 0.17
 17.1875 -0.5
 17.5 -0.5
 17.1875 0
 17.1875 0.17
 17.5 0
 17.5 0.17
 17.8125 -1.5
 17.8125 -2
 18.125 -1.5
 18.125 -2
 17.8125 -1
 18.125 -1
 18.4375 -1.5
 18.4375 -2
 18.75 -1.5
 18.75 -2
 18.4375 -1
 18.75 -1
 17.8125 -0.5
 18.125 -0.5
 17.8125 0
 17.8125 0.17
 18.125 0
 18.125 0.17
 18.4375 -0.5
 18.75 -0.5
 18.4375 0
 18.4375 0.17
 18.75 0
 18.75 0.17
 19.0625 -1.5
 19.0625 -2
 19.375 -1.5
 19.375 -2
 19.0625 -1
 19.375 -1
 19.6875 -1.5
 19.6875 -2
 20 -1.5
 20 -2
 19.6875 -1
 20 -1
 19.0625 -0.5
 19.375 -0.5
 19.0625 0
 19.0625 0.17
 19.375 0
 19.375 0.17
 19.6875 -0.5
 20 -0.5
 19.6875 0
 19.6875 0.17
 20 0
 20 0.17
 20.3125 -1.5
 20.3125 -2
 20.625 -1.5
 20.625 -2
 20.3125 -1
 20.625 -1
 20.9375 -1.5
 20.9375 -2
 21.25 -1.5
 21.25 -2
 20.9375 -1
 21.25 -1
 20.3125 -0.5
 20.625 -0.5
 20.3125 0
 20.3125 0.17
 20.625 0
 20.625 0.17
 20.9375 -0.5
 21.25 -0.5
 20.9375 0
 20.9375 0.17
 21.25 0
 21.25 0.17
 21.5625 -1.5
 21.5625 -2
 21.875 -1.5
 21.875 -2
 21.5625 -1
 21.875 -1
 22.1875 -1.5
 22.1875 -2
 22.5 -1.5
 22.5 -2
 22.1875 -1
 22.5 -1
 21.5625 -0.5
 21.875 -0.5
 21.5625 0
 21.5625 0.17
 21.875 0
 21.875 0.17
 22.1875 -0.5
 22.5 -0.5
 22.1875 0
 22.1875 0.17
 22.5 0
 22.5 0.17
 22.8125 -1.5
 22.8125 -2
 23.125 -1.5
 23.125 -2
 22.8125 -1
 23.125 -1
 23.4375 -1.5
 23.4375 -2
 23.75 -1.5
 23.75 -2
 23.4375 -1
 23.75 -1
 22.8125 -0.5
 23.125 -0.5
 22.8125 0
 22.8125 0.17
 23.125 0
 23.125 0.17
 23.4375 -0.5
 23.75 -0.5
 23.4375 0
 23.4375 0.17
 23.75 0
 23.75 0.17
 24.0625 -1.5
 24.0625 -2
 24.375 -1.5
 24.375 -2
 24.0625 -1
 24.375 -1
 24.6875 -1.5
 24.6875 -2
 25 -1.5
 25 -2
 24.6875 -1
 25 -1
 24.0625 -0.5
 24.375 -0.5
 24.0625 0
 24.0625 0.17
 24.375 0
 24.375 0.17
 24.6875 -0.5
 25 -0.5
 24.6875 0
 24.6875 0.17
 25 0
 25 0.17
 25.3125 -1.5
 25.3125 -2
 25.625 -1.5
 25.625 -2
 25.3125 -1
 25.625 -1
 25.9375 -1.5
 25.9375 -2
 26.25 -1.5
 26.25 -2
 25.9375 -1
 26.25 -1
 25.3125 -0.5
 25.625 -0.5
 25.3125 0
 25.3125 0.17
 25.625 0
 25.625 0.17
 25.9375 -0.5
 26.25 -0.5
 25.9375 0
 25.9375 0.17
 26.25 0
 26.125 0.17
 26.25 0.17
 26.5625 -1.5
 26.5625 -2
 26.875 -1.5
 26.875 -2
 26.5625 -1
 26.875 -1
 27.1875 -1.5
 27.1875 -2
 27.5 -1.5
 27.5 -2
 27.1875 -1
 27.5 -1
 26.5625 -0.5
 26.875 -0.5
 26.5625 0
 26.5625 0.17
 26.875 0
 26.875 0.17
 27.1875 -0.5
 27.5 -0.5
 27.1875 0
 27.1875 0.17
 27.5 0
 27.5 0.17
 27.8125 -1.5
 27.8125 -2
 28.125 -1.5
 28.125 -2
 27.8125 -1
 28.125 -1
 28.4375 -1.5
 28.4375 -2
 28.75 -1.5
 28.75 -2
 28.4375 -1
 28.75 -1
 27.8125 -0.5
 28.125 -0.5
 27.8125 0
 27.8125 0.17
 28.125 0
 28.125 0.17
 28.4375 -0.5
 28.75 -0.5
 28.4375 0
 28.4375 0.17
 28.75 0
 28.75 0.17
 29.0625 -1.5
 29.0625 -2
 29.375 -1.5
 29.375 -2
 29.0625 -1
 29.375 -1
 29.6875 -1.5
 29.6875 -2
 30 -1.5
 30 -2
 29.6875 -1
 30 -1
 29.0625 -0.5
 29.375 -0.5
 29.0625 0
 29.0625 0.17
 29.375 0
 29.375 0.17
 29.6875 -0.5
 30 -0.5
 29.6875 0
 29.6875 0.17
 30 0
 30 0.17
 30.31250000000001 -1.5
 30.31250000000001 -2
 30.62500000000001 -1.5
 30.62500000000001 -2
 30.31250000000001 -1
 30.62500000000001 -1
 30.93750000000001 -1.5
 30.93750000000001 -2
 31.25000000000001 -1.5
 31.25000000000001 -2
 30.93750000000001 -1
 31.25000000000001 -1
 30.31250000000001 -0.5
 30.62500000000001 -0.5
 30.31250000000001 0
 30.31250000000001 0.17
 30.62500000000001 0
 30.62500000000001 0.17
 30.93750000000001 -0.5
 31.25000000000001 -0.5
 30.93750000000001 0
 30.93750000000001 0.17
 31.25000000000001 0
 31.25000000000001 0.17
 31.56250000000001 -1.5
 31.56250000000001 -2
 31.87500000000001 -1.5
 31.87500000000001 -2
 31.56250000000001 -1
 31.87500000000001 -1
 32.18750000000001 -1.5
 32.18750000000001 -2
 32.50000000000001 -1.5
 32.50000000000001 -2
 32.18750000000001 -1
 32.50000000000001 -1
 31.56250000000001 -0.5
 31.87500000000001 -0.5
 31.56250000000001 0
 31.56250000000001 0.17
 31.87500000000001 0
 31.87500000000001 0.17
 32.18750000000001 -0.5
 32.50000000000001 -0.5
 32.18750000000001 0
 32.18750000000001 0.17
 32.50000000000001 0
 32.50000000000001 0.17
 32.81250000000001 -1.5
 32.81250000000001 -2
 33.12500000000001 -1.5
 33.12500000000001 -2
 32.81250000000001 -1
 33.12500000000001 -1
 33.43750000000001 -1.5
 33.43750000000001 -2
 33.75000000000001 -1.5
 33.75000000000001 -2
 33.43750000000001 -1
 33.75000000000001 -1
 32.81250000000001 -0.5
 33.12500000000001 -0.5
 32.81250000000001 0
 32.81250000000001 0.17
 33.12500000000001 0
 33.12500000000001 0.17
 33.43750000000001 -0.5
 33.75000000000001 -0.5
 33.43750000000001 0
 33.43750000000001 0.17
 33.75000000000001 0
 33.75000000000001 0.17
 34.06250000000001 -1.5
 34.06250000000001 -2
 34.37500000000001 -1.5
 34.37500000000001 -2
 34.06250000000001 -1
 34.37500000000001 -1
 34.68750000000001 -1.5
 34.68750000000001 -2
 35.00000000000001 -1.5
 35.00000000000001 -2
 34.68750000000001 -1
 35.00000000000001 -1
 34.06250000000001 -0.5
 34.37500000000001 -0.5
 34.06250000000001 0
 34.06250000000001 0.17
 34.37500000000001 0
 34.37500000000001 0.17
 34.68750000000001 -0.5
 35.00000000000001 -0.5
 34.68750000000001 0
 34.68750000000001 0.17
 35.00000000000001 0
 35.00000000000001 0.17
 35.31250000000001 -1.5
 35.31250000000001 -2
 35.62500000000001 -1.5
 35.62500000000001 -2
 35.31250000000001 -1
 35.62500000000001 -1
 35.93750000000001 -1.5
 35.93750000000001 -2
 36.25000000000001 -1.5
 36.25000000000001 -2
 35.93750000000001 -1
 36.25000000000001 -1
 35.31250000000001 -0.5
 35.62500000000001 -0.5
 35.31250000000001 0
 35.31250000000001 0.17
 35.62500000000001 0
 35.62500000000001 0.17
 35.93750000000001 -0.5
 36.25000000000001 -0.5
 35.93750000000001 0
 35.93750000000001 0.17
 36.25000000000001 0
 36.25000000000001 0.17
 36.56250000000001 -1.5
 36.56250000000001 -2
 36.87500000000001 -1.5
 36.87500000000001 -2
 36.56250000000001 -1
 36.87500000000001 -1
 37.18750000000001 -1.5
 37.18750000000001 -2
 37.50000000000001 -1.5
 37.50000000000001 -2
 37.18750000000001 -1
 37.50000000000001 -1
 36.56250000000001 -0.5
 36.87500000000001 -0.5
 36.56250000000001 0
 36.56250000000001 0.17
 36.87500000000001 0
 36.87500000000001 0.17
 37.18750000000001 -0.5
 37.50000000000001 -0.5
 37.18750000000001 0
 37.18750000000001 0.17
 37.50000000000001 0
 37.50000000000001 0.17
 37.81250000000001 -1.5
 37.81250000000001 -2
 38.12500000000001 -1.5
 38.12500000000001 -2
 37.81250000000001 -1
 38.12500000000001 -1
 38.43750000000001 -1.5
 38.43750000000001 -2
 38.75000000000001 -1.5
 38.75000000000001 -2
 38.43750000000001 -1
 38.75000000000001 -1
 37.81250000000001 -0.5
 38.12500000000001 -0.5
 37.81250000000001 0
 37.81250000000001 0.17
 38.12500000000001 0
 38.12500000000001 0.17
 38.43750000000001 -0.5
 38.75000000000001 -0.5
 38.43750000000001 0
 38.43750000000001 0.17
 38.75000000000001 0
 38.75000000000001 0.17
 39.06250000000001 -1.5
 39.06250000000001 -2
 39.37500000000001 -1.5
 39.37500000000001 -2
 39.06250000000001 -1
 39.37500000000001 -1
 39.68750000000001 -1.5
 39.68750000000001 -2
 40.00000000000001 -1.5
 40.00000000000001 -2
 39.68750000000001 -1
 40.00000000000001 -1
 39.06250000000001 -0.5
 39.37500000000001 -0.5
 39.06250000000001 0
 39.06250000000001 0.17
 39.37500000000001 0
 39.37500000000001 0.17
 39.68750000000001 -0.5
 40.00000000000001 -0.5
 39.68750000000001 0
 39.68750000000001 0.17
 40.00000000000001 0
 40.00000000000001 0.17
 40.31250000000001 -1.5
 40.31250000000001 -2
 40.62500000000001 -1.5
 40.62500000000001 -2
 40.31250000000001 -1
 40.62500000000001 -1
 40.93750000000001 -1.5
 40.93750000000001 -2
 41.25000000000001 -1.5
 41.25000000000001 -2
 40.93750000000001 -1
 41.25000000000001 -1
 40.31250000000001 -0.5
 40.62500000000001 -0.5
 40.31250000000001 0
 40.31250000000001 0.17
 40.62500000000001 0
 40.62500000000001 0.17
 40.93750000000001 -0.5
 41.25000000000001 -0.5
 40.93750000000001 0
 40.93750000000001 0.17
 41.25000000000001 0
 41.25000000000001 0.17
 41.56250000000001 -1.5